    1C
    1UUSER                                                              
    1UDATE              26.february.2021                                
    1UTIME              14:18:37                                        
    1UHOST                                                              
    1UPGM               CalculiX                                        
    1UVERSION           Version 2.16                             
    1UCOMPILETIME       Mo 25. Nov 18:56:47 CET 2019                    
    1UDIR                                                               
    1UDBN                                                               
    1UMAT    1EL                                                        
    2C                           126                                     1
 -1         1 5.00000E-02 0.00000E+00 0.00000E+00
 -1         2 0.00000E+00 0.00000E+00 0.00000E+00
 -1         3 0.00000E+00 0.00000E+00 5.00000E-02
 -1         4 5.00000E-02 0.00000E+00 5.00000E-02
 -1         5 5.00000E-02 3.00000E-01 0.00000E+00
 -1         6 0.00000E+00 3.00000E-01 0.00000E+00
 -1         7 0.00000E+00 3.00000E-01 5.00000E-02
 -1         8 5.00000E-02 3.00000E-01 5.00000E-02
 -1         9 0.00000E+00 0.00000E+00 1.00000E-01
 -1        10 5.00000E-02 0.00000E+00 1.00000E-01
 -1        11 0.00000E+00 3.00000E-01 1.00000E-01
 -1        12 5.00000E-02 3.00000E-01 1.00000E-01
 -1        13 0.00000E+00 0.00000E+00 1.50000E-01
 -1        14 5.00000E-02 0.00000E+00 1.50000E-01
 -1        15 0.00000E+00 3.00000E-01 1.50000E-01
 -1        16 5.00000E-02 3.00000E-01 1.50000E-01
 -1        17 0.00000E+00 0.00000E+00 2.00000E-01
 -1        18 5.00000E-02 0.00000E+00 2.00000E-01
 -1        19 0.00000E+00 3.00000E-01 2.00000E-01
 -1        20 5.00000E-02 3.00000E-01 2.00000E-01
 -1        21 0.00000E+00 0.00000E+00 2.50000E-01
 -1        22 5.00000E-02 0.00000E+00 2.50000E-01
 -1        23 0.00000E+00 3.00000E-01 2.50000E-01
 -1        24 5.00000E-02 3.00000E-01 2.50000E-01
 -1        25 0.00000E+00 0.00000E+00 3.00000E-01
 -1        26 5.00000E-02 0.00000E+00 3.00000E-01
 -1        27 0.00000E+00 3.00000E-01 3.00000E-01
 -1        28 5.00000E-02 3.00000E-01 3.00000E-01
 -1        29 0.00000E+00 0.00000E+00 3.50000E-01
 -1        30 5.00000E-02 0.00000E+00 3.50000E-01
 -1        31 0.00000E+00 3.00000E-01 3.50000E-01
 -1        32 5.00000E-02 3.00000E-01 3.50000E-01
 -1        33 0.00000E+00 0.00000E+00 4.00000E-01
 -1        34 5.00000E-02 0.00000E+00 4.00000E-01
 -1        35 0.00000E+00 3.00000E-01 4.00000E-01
 -1        36 5.00000E-02 3.00000E-01 4.00000E-01
 -1        37 0.00000E+00 0.00000E+00 4.50000E-01
 -1        38 5.00000E-02 0.00000E+00 4.50000E-01
 -1        39 0.00000E+00 3.00000E-01 4.50000E-01
 -1        40 5.00000E-02 3.00000E-01 4.50000E-01
 -1        41 0.00000E+00 0.00000E+00 5.00000E-01
 -1        42 5.00000E-02 0.00000E+00 5.00000E-01
 -1        43 0.00000E+00 3.00000E-01 5.00000E-01
 -1        44 5.00000E-02 3.00000E-01 5.00000E-01
 -1        45 0.00000E+00 0.00000E+00 5.50000E-01
 -1        46 5.00000E-02 0.00000E+00 5.50000E-01
 -1        47 0.00000E+00 3.00000E-01 5.50000E-01
 -1        48 5.00000E-02 3.00000E-01 5.50000E-01
 -1        49 0.00000E+00 0.00000E+00 6.00000E-01
 -1        50 5.00000E-02 0.00000E+00 6.00000E-01
 -1        51 0.00000E+00 3.00000E-01 6.00000E-01
 -1        52 5.00000E-02 3.00000E-01 6.00000E-01
 -1        53 0.00000E+00 0.00000E+00 6.50000E-01
 -1        54 5.00000E-02 0.00000E+00 6.50000E-01
 -1        55 0.00000E+00 3.00000E-01 6.50000E-01
 -1        56 5.00000E-02 3.00000E-01 6.50000E-01
 -1        57 0.00000E+00 0.00000E+00 7.00000E-01
 -1        58 5.00000E-02 0.00000E+00 7.00000E-01
 -1        59 0.00000E+00 3.00000E-01 7.00000E-01
 -1        60 5.00000E-02 3.00000E-01 7.00000E-01
 -1        61 0.00000E+00 0.00000E+00 7.50000E-01
 -1        62 5.00000E-02 0.00000E+00 7.50000E-01
 -1        63 0.00000E+00 3.00000E-01 7.50000E-01
 -1        64 5.00000E-02 3.00000E-01 7.50000E-01
 -1        65 0.00000E+00 0.00000E+00 8.00000E-01
 -1        66 5.00000E-02 0.00000E+00 8.00000E-01
 -1        67 0.00000E+00 3.00000E-01 8.00000E-01
 -1        68 5.00000E-02 3.00000E-01 8.00000E-01
 -1        69 0.00000E+00 0.00000E+00 8.50000E-01
 -1        70 5.00000E-02 0.00000E+00 8.50000E-01
 -1        71 0.00000E+00 3.00000E-01 8.50000E-01
 -1        72 5.00000E-02 3.00000E-01 8.50000E-01
 -1        73 0.00000E+00 0.00000E+00 9.00000E-01
 -1        74 5.00000E-02 0.00000E+00 9.00000E-01
 -1        75 0.00000E+00 3.00000E-01 9.00000E-01
 -1        76 5.00000E-02 3.00000E-01 9.00000E-01
 -1        77 0.00000E+00 0.00000E+00 9.50000E-01
 -1        78 5.00000E-02 0.00000E+00 9.50000E-01
 -1        79 0.00000E+00 3.00000E-01 9.50000E-01
 -1        80 5.00000E-02 3.00000E-01 9.50000E-01
 -1        81 0.00000E+00 0.00000E+00 1.00000E+00
 -1        82 5.00000E-02 0.00000E+00 1.00000E+00
 -1        83 0.00000E+00 3.00000E-01 1.00000E+00
 -1        84 5.00000E-02 3.00000E-01 1.00000E+00
 -1        85-5.00000E-02 0.00000E+00 0.00000E+00
 -1        86-5.00000E-02 0.00000E+00 5.00000E-02
 -1        87-5.00000E-02 3.00000E-01 0.00000E+00
 -1        88-5.00000E-02 3.00000E-01 5.00000E-02
 -1        89-5.00000E-02 0.00000E+00 1.00000E-01
 -1        90-5.00000E-02 3.00000E-01 1.00000E-01
 -1        91-5.00000E-02 0.00000E+00 1.50000E-01
 -1        92-5.00000E-02 3.00000E-01 1.50000E-01
 -1        93-5.00000E-02 0.00000E+00 2.00000E-01
 -1        94-5.00000E-02 3.00000E-01 2.00000E-01
 -1        95-5.00000E-02 0.00000E+00 2.50000E-01
 -1        96-5.00000E-02 3.00000E-01 2.50000E-01
 -1        97-5.00000E-02 0.00000E+00 3.00000E-01
 -1        98-5.00000E-02 3.00000E-01 3.00000E-01
 -1        99-5.00000E-02 0.00000E+00 3.50000E-01
 -1       100-5.00000E-02 3.00000E-01 3.50000E-01
 -1       101-5.00000E-02 0.00000E+00 4.00000E-01
 -1       102-5.00000E-02 3.00000E-01 4.00000E-01
 -1       103-5.00000E-02 0.00000E+00 4.50000E-01
 -1       104-5.00000E-02 3.00000E-01 4.50000E-01
 -1       105-5.00000E-02 0.00000E+00 5.00000E-01
 -1       106-5.00000E-02 3.00000E-01 5.00000E-01
 -1       107-5.00000E-02 0.00000E+00 5.50000E-01
 -1       108-5.00000E-02 3.00000E-01 5.50000E-01
 -1       109-5.00000E-02 0.00000E+00 6.00000E-01
 -1       110-5.00000E-02 3.00000E-01 6.00000E-01
 -1       111-5.00000E-02 0.00000E+00 6.50000E-01
 -1       112-5.00000E-02 3.00000E-01 6.50000E-01
 -1       113-5.00000E-02 0.00000E+00 7.00000E-01
 -1       114-5.00000E-02 3.00000E-01 7.00000E-01
 -1       115-5.00000E-02 0.00000E+00 7.50000E-01
 -1       116-5.00000E-02 3.00000E-01 7.50000E-01
 -1       117-5.00000E-02 0.00000E+00 8.00000E-01
 -1       118-5.00000E-02 3.00000E-01 8.00000E-01
 -1       119-5.00000E-02 0.00000E+00 8.50000E-01
 -1       120-5.00000E-02 3.00000E-01 8.50000E-01
 -1       121-5.00000E-02 0.00000E+00 9.00000E-01
 -1       122-5.00000E-02 3.00000E-01 9.00000E-01
 -1       123-5.00000E-02 0.00000E+00 9.50000E-01
 -1       124-5.00000E-02 3.00000E-01 9.50000E-01
 -1       125-5.00000E-02 0.00000E+00 1.00000E+00
 -1       126-5.00000E-02 3.00000E-01 1.00000E+00
 -3
    3C                            40                                     1
 -1         1    1    0    1
 -2         1         2         3         4         5         6         7         8
 -1         2    1    0    1
 -2         4         3         9        10         8         7        11        12
 -1         3    1    0    1
 -2        10         9        13        14        12        11        15        16
 -1         4    1    0    1
 -2        14        13        17        18        16        15        19        20
 -1         5    1    0    1
 -2        18        17        21        22        20        19        23        24
 -1         6    1    0    1
 -2        22        21        25        26        24        23        27        28
 -1         7    1    0    1
 -2        26        25        29        30        28        27        31        32
 -1         8    1    0    1
 -2        30        29        33        34        32        31        35        36
 -1         9    1    0    1
 -2        34        33        37        38        36        35        39        40
 -1        10    1    0    1
 -2        38        37        41        42        40        39        43        44
 -1        11    1    0    1
 -2        42        41        45        46        44        43        47        48
 -1        12    1    0    1
 -2        46        45        49        50        48        47        51        52
 -1        13    1    0    1
 -2        50        49        53        54        52        51        55        56
 -1        14    1    0    1
 -2        54        53        57        58        56        55        59        60
 -1        15    1    0    1
 -2        58        57        61        62        60        59        63        64
 -1        16    1    0    1
 -2        62        61        65        66        64        63        67        68
 -1        17    1    0    1
 -2        66        65        69        70        68        67        71        72
 -1        18    1    0    1
 -2        70        69        73        74        72        71        75        76
 -1        19    1    0    1
 -2        74        73        77        78        76        75        79        80
 -1        20    1    0    1
 -2        78        77        81        82        80        79        83        84
 -1        21    1    0    1
 -2         2        85        86         3         6        87        88         7
 -1        22    1    0    1
 -2         3        86        89         9         7        88        90        11
 -1        23    1    0    1
 -2         9        89        91        13        11        90        92        15
 -1        24    1    0    1
 -2        13        91        93        17        15        92        94        19
 -1        25    1    0    1
 -2        17        93        95        21        19        94        96        23
 -1        26    1    0    1
 -2        21        95        97        25        23        96        98        27
 -1        27    1    0    1
 -2        25        97        99        29        27        98       100        31
 -1        28    1    0    1
 -2        29        99       101        33        31       100       102        35
 -1        29    1    0    1
 -2        33       101       103        37        35       102       104        39
 -1        30    1    0    1
 -2        37       103       105        41        39       104       106        43
 -1        31    1    0    1
 -2        41       105       107        45        43       106       108        47
 -1        32    1    0    1
 -2        45       107       109        49        47       108       110        51
 -1        33    1    0    1
 -2        49       109       111        53        51       110       112        55
 -1        34    1    0    1
 -2        53       111       113        57        55       112       114        59
 -1        35    1    0    1
 -2        57       113       115        61        59       114       116        63
 -1        36    1    0    1
 -2        61       115       117        65        63       116       118        67
 -1        37    1    0    1
 -2        65       117       119        69        67       118       120        71
 -1        38    1    0    1
 -2        69       119       121        73        71       120       122        75
 -1        39    1    0    1
 -2        73       121       123        77        75       122       124        79
 -1        40    1    0    1
 -2        77       123       125        81        79       124       126        83
 -3
    1PSTEP                         1           1           3          
  100CL  101 2.10000E-01         126                     1    1           1
 -4  DISP        4    1
 -5  D1          1    2    1    0
 -5  D2          1    2    2    0
 -5  D3          1    2    3    0
 -5  ALL         1    2    0    0    1ALL
 -1         1 0.00000E+00 0.00000E+00 0.00000E+00
 -1         2 0.00000E+00 0.00000E+00 0.00000E+00
 -1         3 6.56441E-04 0.00000E+00 8.06959E-05
 -1         4 8.15562E-04 0.00000E+00-7.79322E-04
 -1         5 0.00000E+00 0.00000E+00 0.00000E+00
 -1         6 0.00000E+00 0.00000E+00 0.00000E+00
 -1         7 6.56533E-04 0.00000E+00 8.06427E-05
 -1         8 8.15354E-04 0.00000E+00-7.79258E-04
 -1         9 2.18637E-03 0.00000E+00 1.64317E-04
 -1        10 2.22253E-03 0.00000E+00-1.35550E-03
 -1        11 2.18637E-03 0.00000E+00 1.64315E-04
 -1        12 2.22229E-03 0.00000E+00-1.35545E-03
 -1        13 4.16617E-03 0.00000E+00 2.24681E-04
 -1        14 4.15474E-03 0.00000E+00-1.69143E-03
 -1        15 4.16624E-03 0.00000E+00 2.24688E-04
 -1        16 4.15454E-03 0.00000E+00-1.69138E-03
 -1        17 6.39362E-03 0.00000E+00 2.70884E-04
 -1        18 6.33641E-03 0.00000E+00-1.84493E-03
 -1        19 6.39360E-03 0.00000E+00 2.70877E-04
 -1        20 6.33611E-03 0.00000E+00-1.84491E-03
 -1        21 8.69571E-03 0.00000E+00 3.10600E-04
 -1        22 8.61074E-03 0.00000E+00-1.85535E-03
 -1        23 8.69577E-03 0.00000E+00 3.10617E-04
 -1        24 8.61051E-03 0.00000E+00-1.85536E-03
 -1        25 1.09567E-02 0.00000E+00 3.46972E-04
 -1        26 1.08553E-02 0.00000E+00-1.75492E-03
 -1        27 1.09568E-02 0.00000E+00 3.46993E-04
 -1        28 1.08551E-02 0.00000E+00-1.75490E-03
 -1        29 1.30868E-02 0.00000E+00 3.83584E-04
 -1        30 1.29760E-02 0.00000E+00-1.56228E-03
 -1        31 1.30868E-02 0.00000E+00 3.83574E-04
 -1        32 1.29758E-02 0.00000E+00-1.56228E-03
 -1        33 1.49979E-02 0.00000E+00 4.24341E-04
 -1        34 1.48842E-02 0.00000E+00-1.29314E-03
 -1        35 1.49979E-02 0.00000E+00 4.24319E-04
 -1        36 1.48840E-02 0.00000E+00-1.29317E-03
 -1        37 1.66239E-02 0.00000E+00 4.69521E-04
 -1        38 1.65145E-02 0.00000E+00-9.71412E-04
 -1        39 1.66240E-02 0.00000E+00 4.69507E-04
 -1        40 1.65142E-02 0.00000E+00-9.71458E-04
 -1        41 1.79325E-02 0.00000E+00 5.16347E-04
 -1        42 1.78320E-02 0.00000E+00-6.23439E-04
 -1        43 1.79326E-02 0.00000E+00 5.16336E-04
 -1        44 1.78318E-02 0.00000E+00-6.23468E-04
 -1        45 1.89153E-02 0.00000E+00 5.62096E-04
 -1        46 1.88258E-02 0.00000E+00-2.71299E-04
 -1        47 1.89154E-02 0.00000E+00 5.62097E-04
 -1        48 1.88256E-02 0.00000E+00-2.71272E-04
 -1        49 1.95785E-02 0.00000E+00 6.05008E-04
 -1        50 1.95017E-02 0.00000E+00 6.54706E-05
 -1        51 1.95785E-02 0.00000E+00 6.05045E-04
 -1        52 1.95014E-02 0.00000E+00 6.55306E-05
 -1        53 1.99444E-02 0.00000E+00 6.43470E-04
 -1        54 1.98817E-02 0.00000E+00 3.68212E-04
 -1        55 1.99444E-02 0.00000E+00 6.43509E-04
 -1        56 1.98815E-02 0.00000E+00 3.68165E-04
 -1        57 2.00652E-02 0.00000E+00 6.77647E-04
 -1        58 2.00127E-02 0.00000E+00 6.31701E-04
 -1        59 2.00654E-02 0.00000E+00 6.77675E-04
 -1        60 2.00126E-02 0.00000E+00 6.31607E-04
 -1        61 1.99768E-02 0.00000E+00 7.09392E-04
 -1        62 1.99305E-02 0.00000E+00 8.64732E-04
 -1        63 1.99768E-02 0.00000E+00 7.09461E-04
 -1        64 1.99302E-02 0.00000E+00 8.64761E-04
 -1        65 1.96953E-02 0.00000E+00 7.38294E-04
 -1        66 1.96567E-02 0.00000E+00 1.07023E-03
 -1        67 1.96953E-02 0.00000E+00 7.38309E-04
 -1        68 1.96566E-02 0.00000E+00 1.07014E-03
 -1        69 1.92428E-02 0.00000E+00 7.65017E-04
 -1        70 1.92139E-02 0.00000E+00 1.24156E-03
 -1        71 1.92429E-02 0.00000E+00 7.65078E-04
 -1        72 1.92138E-02 0.00000E+00 1.24162E-03
 -1        73 1.86599E-02 0.00000E+00 7.87245E-04
 -1        74 1.86404E-02 0.00000E+00 1.36408E-03
 -1        75 1.86599E-02 0.00000E+00 7.87303E-04
 -1        76 1.86403E-02 0.00000E+00 1.36395E-03
 -1        77 1.80134E-02 0.00000E+00 8.08667E-04
 -1        78 1.80111E-02 0.00000E+00 1.42874E-03
 -1        79 1.80138E-02 0.00000E+00 8.08595E-04
 -1        80 1.80108E-02 0.00000E+00 1.42847E-03
 -1        81 1.73648E-02 0.00000E+00 8.14963E-04
 -1        82 1.73351E-02 0.00000E+00 1.48700E-03
 -1        83 1.73644E-02 0.00000E+00 8.14881E-04
 -1        84 1.73354E-02 0.00000E+00 1.48729E-03
 -1        85 0.00000E+00 0.00000E+00 0.00000E+00
 -1        86 9.25741E-04 0.00000E+00 9.49280E-04
 -1        87 0.00000E+00 0.00000E+00 0.00000E+00
 -1        88 9.25765E-04 0.00000E+00 9.49317E-04
 -1        89 2.36040E-03 0.00000E+00 1.67524E-03
 -1        90 2.36054E-03 0.00000E+00 1.67532E-03
 -1        91 4.31267E-03 0.00000E+00 2.13243E-03
 -1        92 4.31281E-03 0.00000E+00 2.13245E-03
 -1        93 6.50808E-03 0.00000E+00 2.38210E-03
 -1        94 6.50820E-03 0.00000E+00 2.38211E-03
 -1        95 8.78272E-03 0.00000E+00 2.47384E-03
 -1        96 8.78292E-03 0.00000E+00 2.47387E-03
 -1        97 1.10163E-02 0.00000E+00 2.44828E-03
 -1        98 1.10165E-02 0.00000E+00 2.44828E-03
 -1        99 1.31203E-02 0.00000E+00 2.33070E-03
 -1       100 1.31204E-02 0.00000E+00 2.33068E-03
 -1       101 1.50078E-02 0.00000E+00 2.14296E-03
 -1       102 1.50079E-02 0.00000E+00 2.14294E-03
 -1       103 1.66142E-02 0.00000E+00 1.91007E-03
 -1       104 1.66144E-02 0.00000E+00 1.91004E-03
 -1       105 1.79079E-02 0.00000E+00 1.65437E-03
 -1       106 1.79080E-02 0.00000E+00 1.65434E-03
 -1       107 1.88813E-02 0.00000E+00 1.39273E-03
 -1       108 1.88814E-02 0.00000E+00 1.39267E-03
 -1       109 1.95411E-02 0.00000E+00 1.14044E-03
 -1       110 1.95413E-02 0.00000E+00 1.14036E-03
 -1       111 1.99085E-02 0.00000E+00 9.14262E-04
 -1       112 1.99086E-02 0.00000E+00 9.14271E-04
 -1       113 2.00329E-02 0.00000E+00 7.20064E-04
 -1       114 2.00331E-02 0.00000E+00 7.20162E-04
 -1       115 1.99486E-02 0.00000E+00 5.49673E-04
 -1       116 1.99487E-02 0.00000E+00 5.49640E-04
 -1       117 1.96710E-02 0.00000E+00 4.02035E-04
 -1       118 1.96709E-02 0.00000E+00 4.01954E-04
 -1       119 1.92275E-02 0.00000E+00 2.87931E-04
 -1       120 1.92275E-02 0.00000E+00 2.87860E-04
 -1       121 1.86522E-02 0.00000E+00 2.20905E-04
 -1       122 1.86522E-02 0.00000E+00 2.20882E-04
 -1       123 1.80274E-02 0.00000E+00 1.93956E-04
 -1       124 1.80274E-02 0.00000E+00 1.94022E-04
 -1       125 1.73251E-02 0.00000E+00 2.10977E-04
 -1       126 1.73252E-02 0.00000E+00 2.11063E-04
 -3
    1PSTEP                         2           1           3          
  100CL  101 2.10000E-01         126                     1    1           1
 -4  STRESS      6    1
 -5  SXX         1    4    1    1
 -5  SYY         1    4    2    2
 -5  SZZ         1    4    3    3
 -5  SXY         1    4    1    2
 -5  SYZ         1    4    2    3
 -5  SZX         1    4    3    1
 -1         1-3.52284E+03-3.59399E+03-8.18677E+03 2.38074E-04-3.20825E-04 2.38425E+03
 -1         2 4.33399E+02 3.91964E+02 8.55626E+02-5.70121E-05 1.35854E-04 2.02802E+03
 -1         3-8.27245E+00 2.21486E+02 7.42299E+02 4.71396E-02-2.71361E-02 7.13093E+02
 -1         4-1.23438E+03-2.29976E+03-6.30188E+03-1.06780E-01 3.13169E-02 7.09071E+02
 -1         5-3.52259E+03-3.59370E+03-8.18614E+03 2.37790E-04-3.20763E-04 2.38364E+03
 -1         6 4.33180E+02 3.91724E+02 8.55065E+02-5.69642E-05 1.35845E-04 2.02829E+03
 -1         7-9.55308E+00 2.20949E+02 7.41752E+02 4.71393E-02-2.71361E-02 7.13132E+02
 -1         8-1.23756E+03-2.30106E+03-6.30302E+03-1.06779E-01 3.13167E-02 7.09077E+02
 -1         9 4.04324E+01 2.64201E+02 8.34254E+02-2.83175E-03-7.60264E-04 7.52246E+02
 -1        10-1.30369E+03-1.70332E+03-4.31253E+03-1.19552E-01 2.79598E-02 4.06534E+02
 -1        11 3.85628E+01 2.63480E+02 8.33722E+02-2.83175E-03-7.60260E-04 7.52179E+02
 -1        12-1.30619E+03-1.70441E+03-4.31365E+03-1.19551E-01 2.79595E-02 4.06734E+02
 -1        13 4.67954E+01 2.55044E+02 8.05538E+02 3.37034E-02 3.59650E-03 6.07281E+02
 -1        14-6.25609E+02-8.17372E+02-2.08370E+03-1.03584E-01 2.78220E-02 4.01671E+02
 -1        15 4.49363E+01 2.54241E+02 8.04714E+02 3.37031E-02 3.59650E-03 6.07328E+02
 -1        16-6.28600E+02-8.18703E+02-2.08513E+03-1.03583E-01 2.78218E-02 4.01748E+02
 -1        17 3.49217E+01 2.45191E+02 7.86528E+02-9.15022E-03-3.39589E-03 4.83712E+02
 -1        18-2.52155E+02-2.06503E+02-4.33480E+02-1.50713E-01 1.26240E-02 3.41004E+02
 -1        19 3.27124E+01 2.44257E+02 7.85626E+02-9.15013E-03-3.39589E-03 4.83767E+02
 -1        20-2.55286E+02-2.07934E+02-4.35111E+02-1.50711E-01 1.26238E-02 3.41076E+02
 -1        21 2.81257E+01 2.35411E+02 7.60648E+02 3.36954E-02 9.24045E-03 3.77523E+02
 -1        22 6.01709E+01 2.67705E+02 8.37344E+02-1.21192E-01-4.13802E-03 3.05993E+02
 -1        23 2.58608E+01 2.34477E+02 7.59802E+02 3.36951E-02 9.24047E-03 3.77656E+02
 -1        24 5.69463E+01 2.66316E+02 8.35941E+02-1.21190E-01-4.13812E-03 3.06122E+02
 -1        25 2.63351E+01 2.23475E+02 7.21455E+02 4.31145E-02 1.06402E-02 3.05140E+02
 -1        26 3.03250E+02 6.32119E+02 1.81795E+03-9.37877E-02 9.42590E-03 2.82645E+02
 -1        27 2.42725E+01 2.22553E+02 7.20445E+02 4.31141E-02 1.06401E-02 3.05114E+02
 -1        28 3.00409E+02 6.30912E+02 1.81676E+03-9.37865E-02 9.42587E-03 2.82664E+02
 -1        29 1.91709E+01 2.09448E+02 6.80378E+02 9.31822E-03-4.91896E-03 2.41969E+02
 -1        30 4.86376E+02 9.16102E+02 2.59280E+03-1.23156E-01-3.06224E-04 2.54753E+02
 -1        31 1.70865E+01 2.08496E+02 6.79291E+02 9.31813E-03-4.91895E-03 2.41907E+02
 -1        32 4.83475E+02 9.14793E+02 2.59132E+03-1.23154E-01-3.06177E-04 2.54686E+02
 -1        33 1.04243E+01 1.94702E+02 6.38468E+02 9.12137E-03-1.13828E-02 1.66789E+02
 -1        34 6.15925E+02 1.11959E+03 3.15181E+03-1.33499E-01-1.75251E-02 2.05182E+02
 -1        35 8.25167E+00 1.93764E+02 6.37518E+02 9.12127E-03-1.13828E-02 1.66830E+02
 -1        36 6.12853E+02 1.11822E+03 3.15029E+03-1.33497E-01-1.75250E-02 2.05185E+02
 -1        37 7.84395E+00 1.78378E+02 5.85279E+02 2.29773E-02-7.08326E-03 9.03468E+01
 -1        38 6.99983E+02 1.23651E+03 3.46366E+03-1.18747E-01-2.37067E-02 1.42916E+02
 -1        39 5.76497E+00 1.77500E+02 5.84438E+02 2.29771E-02-7.08324E-03 9.03817E+01
 -1        40 6.97055E+02 1.23527E+03 3.46243E+03-1.18746E-01-2.37066E-02 1.42912E+02
 -1        41 1.13878E+01 1.60097E+02 5.19903E+02 2.65248E-02-5.49797E-03 2.67467E+01
 -1        42 7.40600E+02 1.27363E+03 3.54806E+03-1.10106E-01-1.51451E-02 8.17465E+01
 -1        43 9.49961E+00 1.59305E+02 5.19153E+02 2.65246E-02-5.49796E-03 2.67671E+01
 -1        44 7.37925E+02 1.27258E+03 3.54724E+03-1.10105E-01-1.51451E-02 8.17012E+01
 -1        45 1.57702E+01 1.40918E+02 4.51319E+02 2.35819E-02 2.59792E-04-2.43220E+01
 -1        46 7.36083E+02 1.24113E+03 3.44135E+03-1.21512E-01 1.40757E-02 2.71224E+01
 -1        47 1.38769E+01 1.40165E+02 4.50707E+02 2.35817E-02 2.59799E-04-2.42185E+01
 -1        48 7.33260E+02 1.24004E+03 3.44054E+03-1.21510E-01 1.40757E-02 2.71654E+01
 -1        49 2.12718E+01 1.23175E+02 3.86922E+02 1.37872E-02 1.89454E-02-6.88389E+01
 -1        50 6.95214E+02 1.14803E+03 3.16562E+03-1.28588E-01 3.12184E-02-2.27302E+01
 -1        51 1.92925E+01 1.22374E+02 3.86237E+02 1.37871E-02 1.89454E-02-6.86820E+01
 -1        52 6.92075E+02 1.14659E+03 3.16393E+03-1.28586E-01 3.12182E-02-2.25578E+01
 -1        53 3.55719E+01 1.12394E+02 3.36911E+02 4.28841E-03 2.02046E-02-9.05645E+01
 -1        54 6.43802E+02 1.02390E+03 2.79556E+03-9.16914E-02-2.46134E-02-5.55768E+01
 -1        55 3.41705E+01 1.11782E+02 3.36275E+02 4.28840E-03 2.02046E-02-9.04574E+01
 -1        56 6.41451E+02 1.02269E+03 2.79386E+03-9.16905E-02-2.46132E-02-5.55910E+01
 -1        57 4.51575E+01 1.05893E+02 3.06126E+02 7.76974E-02 1.46063E-02-8.60629E+01
 -1        58 5.81397E+02 9.03437E+02 2.45027E+03-4.53403E-02-4.85756E-02-6.61875E+01
 -1        59 4.38205E+01 1.05357E+02 3.05684E+02 7.76968E-02 1.46062E-02-8.63237E+01
 -1        60 5.79008E+02 9.02517E+02 2.44959E+03-4.53396E-02-4.85754E-02-6.67191E+01
 -1        61 4.89102E+01 1.01219E+02 2.87344E+02 1.56950E-02 3.55040E-02-8.49436E+01
 -1        62 5.18569E+02 8.00710E+02 2.16639E+03-1.41980E-01 1.50625E-02-7.29917E+01
 -1        63 4.71033E+01 1.00426E+02 2.86507E+02 1.56949E-02 3.55039E-02-8.50608E+01
 -1        64 5.15291E+02 7.99324E+02 2.16503E+03-1.41978E-01 1.50627E-02-7.31090E+01
 -1        65 7.22460E+01 1.06958E+02 2.83668E+02 6.95876E-03 7.70285E-03-1.02110E+02
 -1        66 4.73762E+02 7.02466E+02 1.87995E+03-4.25681E-02-4.31015E-02-8.65020E+01
 -1        67 7.21573E+01 1.06910E+02 2.83596E+02 6.95878E-03 7.70285E-03-1.01974E+02
 -1        68 4.72803E+02 7.02101E+02 1.87969E+03-4.25680E-02-4.31015E-02-8.65833E+01
 -1        69 7.97582E+01 1.04536E+02 2.68550E+02 6.29181E-02 3.16763E-02-1.26785E+02
 -1        70 4.05245E+02 5.66854E+02 1.49218E+03-6.68325E-02 3.33030E-02-1.03068E+02
 -1        71 7.91036E+01 1.04312E+02 2.68463E+02 6.29179E-02 3.16763E-02-1.26693E+02
 -1        72 4.02430E+02 5.65595E+02 1.49079E+03-6.68317E-02 3.33030E-02-1.03039E+02
 -1        73 9.34378E+01 1.06127E+02 2.60477E+02-3.12893E-02 2.97097E-02-1.33797E+02
 -1        74 2.75686E+02 3.73616E+02 9.73250E+02-3.44628E-02-6.46813E-02-7.99237E+01
 -1        75 9.27387E+01 1.05650E+02 2.59586E+02-3.12891E-02 2.97095E-02-1.33656E+02
 -1        76 2.74856E+02 3.72815E+02 9.71404E+02-3.44628E-02-6.46807E-02-8.07408E+01
 -1        77 3.88377E+01 6.32558E+01 1.72021E+02 1.61632E-01-3.67362E-02-9.37196E+01
 -1        78 3.22004E+02 3.10069E+02 7.13393E+02-1.52294E-01-1.37863E-01-1.03117E+02
 -1        79 3.71993E+01 6.23623E+01 1.70683E+02 1.61632E-01-3.67365E-02-9.47574E+01
 -1        80 3.16345E+02 3.08194E+02 7.12797E+02-1.52292E-01-1.37863E-01-1.03167E+02
 -1        81 1.47449E+02 9.03451E+01 1.54188E+02-2.04950E-01-4.21896E-02-3.29638E+01
 -1        82 1.90610E+01 1.73742E+02 5.61152E+02 1.61282E-01 1.50879E-01-1.58516E+01
 -1        83 1.48468E+02 9.07610E+01 1.54547E+02-2.04951E-01-4.21885E-02-3.48411E+01
 -1        84 2.92651E+01 1.79609E+02 5.70530E+02 1.61286E-01 1.50884E-01-1.28039E+01
 -1        85 4.47251E+03 4.37904E+03 1.05458E+04 7.87388E-05 4.05247E-05 3.02398E+03
 -1        86 1.17310E+03 2.72840E+03 8.14780E+03 1.21310E-02 1.93400E-02 1.05251E+03
 -1        87 4.47269E+03 4.37920E+03 1.05462E+04 7.87377E-05 4.05260E-05 3.02407E+03
 -1        88 1.17404E+03 2.72891E+03 8.14860E+03 1.21310E-02 1.93400E-02 1.05245E+03
 -1        89 1.28036E+03 2.16463E+03 6.06804E+03 7.24175E-02 4.34000E-02 6.49910E+02
 -1        90 1.27881E+03 2.16395E+03 6.06733E+03 7.24170E-02 4.33999E-02 6.49838E+02
 -1        91 6.89043E+02 1.32102E+03 3.77073E+03 7.16700E-02 1.16864E-02 5.79578E+02
 -1        92 6.88075E+02 1.32051E+03 3.76997E+03 7.16697E-02 1.16864E-02 5.79503E+02
 -1        93 3.00823E+02 6.95530E+02 2.03719E+03 6.26452E-02 2.51488E-03 4.22080E+02
 -1        94 2.99353E+02 6.94906E+02 2.03658E+03 6.26448E-02 2.51490E-03 4.22159E+02
 -1        95-1.98116E+01 2.01697E+02 6.96711E+02 1.03944E-01 1.33933E-02 2.96734E+02
 -1        96-2.12743E+01 2.01065E+02 6.96069E+02 1.03944E-01 1.33933E-02 2.96828E+02
 -1        97-2.61341E+02-1.84517E+02-3.52476E+02 9.61231E-02 2.91293E-04 2.05887E+02
 -1        98-2.62570E+02-1.85101E+02-3.53191E+02 9.61225E-02 2.91267E-04 2.05842E+02
 -1        99-4.59580E+02-4.99808E+02-1.20230E+03 6.50355E-02-7.85797E-03 1.34653E+02
 -1       100-4.60813E+02-5.00367E+02-1.20292E+03 6.50351E-02-7.85798E-03 1.34616E+02
 -1       101-6.09862E+02-7.38555E+02-1.84237E+03 7.37513E-02-1.06106E-02 6.54923E+01
 -1       102-6.11234E+02-7.39154E+02-1.84299E+03 7.37508E-02-1.06106E-02 6.55548E+01
 -1       103-6.98102E+02-8.89344E+02-2.25174E+03 8.31763E-02-1.15528E-02 6.66573E+00
 -1       104-6.99400E+02-8.89919E+02-2.25235E+03 8.31758E-02-1.15527E-02 6.70195E+00
 -1       105-7.27888E+02-9.60716E+02-2.45674E+03 7.35601E-02-1.66087E-02-3.33550E+01
 -1       106-7.28969E+02-9.61229E+02-2.45736E+03 7.35598E-02-1.66087E-02-3.33235E+01
 -1       107-7.12953E+02-9.65831E+02-2.48795E+03 6.94138E-02-2.94532E-02-5.73965E+01
 -1       108-7.14023E+02-9.66348E+02-2.48860E+03 6.94135E-02-2.94531E-02-5.72296E+01
 -1       109-6.58684E+02-9.06387E+02-2.34585E+03 6.83985E-02-3.77738E-02-7.54476E+01
 -1       110-6.59688E+02-9.06733E+02-2.34600E+03 6.83981E-02-3.77737E-02-7.51919E+01
 -1       111-5.73203E+02-7.98580E+02-2.07573E+03 4.01627E-02 4.82584E-03-8.00305E+01
 -1       112-5.73563E+02-7.98508E+02-2.07514E+03 4.01626E-02 4.82591E-03-7.98758E+01
 -1       113-4.92857E+02-6.92336E+02-1.80518E+03 8.93752E-02 4.99992E-02-6.88776E+01
 -1       114-4.93198E+02-6.92539E+02-1.80551E+03 8.93750E-02 4.99990E-02-6.91263E+01
 -1       115-4.24654E+02-6.01011E+02-1.57125E+03 2.77707E-02-1.68664E-02-6.30963E+01
 -1       116-4.25316E+02-6.01531E+02-1.57231E+03 2.77707E-02-1.68663E-02-6.31571E+01
 -1       117-3.22908E+02-4.80766E+02-1.27466E+03-3.61060E-02-4.11501E-02-7.11820E+01
 -1       118-3.22087E+02-4.80461E+02-1.27447E+03-3.61062E-02-4.11502E-02-7.09522E+01
 -1       119-2.14276E+02-3.24818E+02-8.65924E+02 6.17418E-03-3.63199E-02-9.61586E+01
 -1       120-2.12946E+02-3.24167E+02-8.65091E+02 6.17411E-03-3.63200E-02-9.56387E+01
 -1       121-7.93613E+01-1.49500E+02-4.18388E+02 1.06594E-03-1.17689E-02-1.01584E+02
 -1       122-7.97150E+01-1.49468E+02-4.17929E+02 1.06596E-03-1.17689E-02-1.01435E+02
 -1       123-1.08329E+02-4.96251E+01-5.66167E+01-2.53368E-02 3.40558E-02-1.50609E+02
 -1       124-1.04170E+02-4.77040E+01-5.43705E+01-2.53369E-02 3.40561E-02-1.50820E+02
 -1       125 5.77227E+02 3.01237E+02 4.29184E+02 6.92309E-02 4.40334E-02-3.02855E+02
 -1       126 5.71519E+02 2.98843E+02 4.26899E+02 6.92296E-02 4.40324E-02-3.02820E+02
 -3
    1PSTEP                         3           1           3          
  100CL  101 2.10000E-01         126                     1    1           1
 -4  TOSTRAIN    6    1
 -5  EXX         1    4    1    1
 -5  EYY         1    4    2    2
 -5  EZZ         1    4    3    3
 -5  EXY         1    4    1    2
 -5  EYZ         1    4    2    3
 -5  EZX         1    4    3    1