/*--------------------------------*- C++ -*----------------------------------*\
| =========                 |                                                 |
| \\      /  F ield         | OpenFOAM: The Open Source CFD Toolbox           |
|  \\    /   O peration     | Version:  2012                                  |
|   \\  /    A nd           | Website:  www.openfoam.com                      |
|    \\/     M anipulation  |                                                 |
\*---------------------------------------------------------------------------*/
FoamFile
{
    version     2.0;
    format      ascii;
    class       volVectorField;
    location    "0.2";
    object      cellDisplacement;
}
// * * * * * * * * * * * * * * * * * * * * * * * * * * * * * * * * * * * * * //

dimensions      [0 1 0 0 0 0 0];


internalField   nonuniform List<vector> 
2790
(
(2.09796e-07 0 1.72029e-09)
(6.9274e-07 0 5.73843e-09)
(1.46612e-06 0 1.23663e-08)
(2.83979e-06 0 2.45094e-08)
(5.27005e-06 0 4.6667e-08)
(9.46018e-06 0 8.60989e-08)
(1.64706e-05 0 1.543e-07)
(2.78481e-05 0 2.68959e-07)
(4.5768e-05 0 4.5649e-07)
(7.31762e-05 0 7.55207e-07)
(0.000113905 0 1.21912e-06)
(0.000172732 0 1.92235e-06)
(0.000255333 0 2.964e-06)
(0.000368072 0 4.47341e-06)
(0.000517575 0 6.6157e-06)
(0.000710009 0 9.59781e-06)
(0.000950032 0 1.36759e-05)
(0.00123937 0 1.91656e-05)
(0.00157508 0 2.64596e-05)
(0.00194754 0 3.60565e-05)
(0.00233845 0 4.86099e-05)
(0.00271912 0 6.50037e-05)
(0.0030497 0 8.64586e-05)
(0.00327992 0 0.000114664)
(0.00335245 0 0.000151909)
(0.00321026 0 0.000201155)
(0.00281027 0 0.000265826)
(0.00214815 0 0.000348402)
(0.0013077 0 0.000443297)
(0.000582051 0 0.000508627)
(1.82878e-07 0 4.92654e-09)
(6.10967e-07 0 1.64854e-08)
(1.30671e-06 0 3.56321e-08)
(2.55147e-06 0 7.07863e-08)
(4.77028e-06 0 1.35067e-07)
(8.62389e-06 0 2.49691e-07)
(1.51169e-05 0 4.48321e-07)
(2.57263e-05 0 7.82839e-07)
(4.25464e-05 0 1.33085e-06)
(6.84361e-05 0 2.20502e-06)
(0.000107148 0 3.56435e-06)
(0.000163408 0 5.62713e-06)
(0.000242893 0 8.68523e-06)
(0.000352071 0 1.31193e-05)
(0.000497821 0 1.94143e-05)
(0.000686789 0 2.81762e-05)
(0.000924411 0 4.01503e-05)
(0.00121359 0 5.6248e-05)
(0.00155307 0 7.75881e-05)
(0.00193549 0 0.00010557)
(0.00234558 0 0.000141997)
(0.00275851 0 0.000189258)
(0.00313927 0 0.000250586)
(0.00344353 0 0.000330317)
(0.00362129 0 0.000434025)
(0.00362446 0 0.000568125)
(0.0034206 0 0.000738088)
(0.00301685 0 0.000943377)
(0.00250197 0 0.00116563)
(0.00211526 0 0.00134468)
(1.75397e-07 0 7.81325e-09)
(5.89429e-07 0 2.62528e-08)
(1.26451e-06 0 5.69204e-08)
(2.47531e-06 0 1.13326e-07)
(4.63905e-06 0 2.16648e-07)
(8.40688e-06 0 4.01206e-07)
(1.47725e-05 0 7.21521e-07)
(2.52027e-05 0 1.26172e-06)
(4.17872e-05 0 2.14773e-06)
(6.73938e-05 0 3.56243e-06)
(0.000105812 0 5.76387e-06)
(0.000161854 0 9.10597e-06)
(0.000241365 0 1.40612e-05)
(0.000351112 0 2.12438e-05)
(0.000498468 0 3.14331e-05)
(0.000690855 0 4.55953e-05)
(0.000934886 0 6.49064e-05)
(0.00123519 0 9.07819e-05)
(0.00159294 0 0.000124923)
(0.0020042 0 0.000169403)
(0.00245822 0 0.000226812)
(0.0029362 0 0.000300486)
(0.00341073 0 0.000394798)
(0.00384682 0 0.000515424)
(0.00420526 0 0.000669293)
(0.00444908 0 0.000863575)
(0.00455385 0 0.00110237)
(0.00452139 0 0.00137853)
(0.00439534 0 0.00165728)
(0.00428377 0 0.00185298)
(1.69183e-07 0 1.05275e-08)
(5.70478e-07 0 3.54801e-08)
(1.22713e-06 0 7.70663e-08)
(2.40827e-06 0 1.53603e-07)
(4.52499e-06 0 2.93897e-07)
(8.22166e-06 0 5.44651e-07)
(1.44859e-05 0 9.80075e-07)
(2.47828e-05 0 1.71465e-06)
(4.1211e-05 0 2.91961e-06)
(6.66697e-05 0 4.84339e-06)
(0.000105021 0 7.83581e-06)
(0.000161217 0 1.23754e-05)
(0.000241361 0 1.90985e-05)
(0.000352646 0 2.8828e-05)
(0.000503131 0 4.25992e-05)
(0.000701293 0 6.16819e-05)
(0.000955319 0 8.75965e-05)
(0.00127211 0 0.000122131)
(0.00165605 0 0.000167368)
(0.00210755 0 0.000225744)
(0.00262173 0 0.000300163)
(0.00318729 0 0.000394185)
(0.00378612 0 0.000512266)
(0.00439412 0 0.00065991)
(0.00498345 0 0.000843385)
(0.00552643 0 0.00106827)
(0.00599972 0 0.00133535)
(0.00638514 0 0.00163148)
(0.00666234 0 0.00191312)
(0.00681045 0 0.00209092)
(1.63883e-07 0 1.3068e-08)
(5.53833e-07 0 4.41334e-08)
(1.19418e-06 0 9.59628e-08)
(2.34954e-06 0 1.91359e-07)
(4.42621e-06 0 3.66236e-07)
(8.06408e-06 0 6.7882e-07)
(1.42485e-05 0 1.22156e-06)
(2.44492e-05 0 2.13695e-06)
(4.07838e-05 0 3.63779e-06)
(6.61993e-05 0 6.03215e-06)
(0.000104656 0 9.75255e-06)
(0.000161287 0 1.53883e-05)
(0.000242509 0 2.37187e-05)
(0.000356032 0 3.57439e-05)
(0.000510727 0 5.27097e-05)
(0.000716304 0 7.6121e-05)
(0.000982766 0 0.000107743)
(0.0013196 0 0.000149587)
(0.00173478 0 0.000203896)
(0.00223358 0 0.000273142)
(0.00281741 0 0.000360054)
(0.00348291 0 0.00046771)
(0.00422145 0 0.000599648)
(0.00501926 0 0.000759886)
(0.00585819 0 0.000952515)
(0.00671607 0 0.00118019)
(0.00756423 0 0.00144027)
(0.00835643 0 0.00171672)
(0.00900383 0 0.00196615)
(0.00936744 0 0.0021093)
(1.59305e-07 0 1.54331e-08)
(5.39237e-07 0 5.21907e-08)
(1.16521e-06 0 1.13535e-07)
(2.29808e-06 0 2.264e-07)
(4.34043e-06 0 4.33226e-07)
(7.92922e-06 0 8.02763e-07)
(1.40502e-05 0 1.44406e-06)
(2.41814e-05 0 2.52489e-06)
(4.04659e-05 0 4.2953e-06)
(6.59077e-05 0 7.11623e-06)
(0.000104579 0 1.14925e-05)
(0.000161816 0 1.81085e-05)
(0.000244381 0 2.78631e-05)
(0.000360538 0 4.19e-05)
(0.000520029 0 6.16259e-05)
(0.000733865 0 8.87111e-05)
(0.00101394 0 0.000125065)
(0.0013724 0 0.000172782)
(0.00182085 0 0.000234065)
(0.00236933 0 0.000311133)
(0.00302533 0 0.000406141)
(0.00379285 0 0.000521123)
(0.00467153 0 0.00065796)
(0.00565601 0 0.000818292)
(0.00673474 0 0.00100314)
(0.00788691 0 0.00121177)
(0.00907405 0 0.00143895)
(0.0102195 0 0.00166909)
(0.0111708 0 0.00186593)
(0.0116909 0 0.00196825)
(1.55338e-07 0 1.76245e-08)
(5.26466e-07 0 5.96458e-08)
(1.13975e-06 0 1.29748e-07)
(2.25285e-06 0 2.58615e-07)
(4.26526e-06 0 4.94578e-07)
(7.81189e-06 0 9.15831e-07)
(1.388e-05 0 1.64619e-06)
(2.39575e-05 0 2.87577e-06)
(4.02148e-05 0 4.88712e-06)
(6.57156e-05 0 8.08671e-06)
(0.000104646 0 1.30405e-05)
(0.000162549 0 2.05114e-05)
(0.000246528 0 3.14942e-05)
(0.000365404 0 4.72415e-05)
(0.000529769 0 6.9274e-05)
(0.000751902 0 9.93624e-05)
(0.00104551 0 0.000139474)
(0.00142525 0 0.00019167)
(0.00190607 0 0.000257964)
(0.00250231 0 0.000340126)
(0.0032267 0 0.00043948)
(0.00408924 0 0.000556693)
(0.0050959 0 0.000691609)
(0.00624687 0 0.000843082)
(0.00753366 0 0.00100877)
(0.00893311 0 0.00118461)
(0.0103947 0 0.00136361)
(0.0118138 0 0.00153279)
(0.0129866 0 0.0016668)
(0.0136047 0 0.00172638)
(1.51913e-07 0 1.96481e-08)
(5.15344e-07 0 6.65112e-08)
(1.11741e-06 0 1.44607e-07)
(2.21288e-06 0 2.87977e-07)
(4.19846e-06 0 5.50175e-07)
(7.70713e-06 0 1.01769e-06)
(1.37274e-05 0 1.8272e-06)
(2.37565e-05 0 3.18801e-06)
(3.99898e-05 0 5.41026e-06)
(6.55458e-05 0 8.93834e-06)
(0.000104717 0 1.43881e-05)
(0.000163233 0 2.25843e-05)
(0.000248518 0 3.45944e-05)
(0.000369897 0 5.17484e-05)
(0.00053874 0 7.56384e-05)
(0.000768466 0 0.000108082)
(0.00107439 0 0.000151038)
(0.00147337 0 0.00020646)
(0.00198318 0 0.000276084)
(0.00262168 0 0.000361145)
(0.00340566 0 0.000462053)
(0.00434945 0 0.00057805)
(0.00546296 0 0.000706918)
(0.00674894 0 0.000844787)
(0.00819854 0 0.000986122)
(0.00978331 0 0.00112392)
(0.0114402 0 0.00124997)
(0.013042 0 0.00135459)
(0.0143492 0 0.00142404)
(0.0150115 0 0.00144155)
(1.48995e-07 0 2.1516e-08)
(5.0576e-07 0 7.28201e-08)
(1.09787e-06 0 1.58165e-07)
(2.17741e-06 0 3.14553e-07)
(4.13816e-06 0 6.0008e-07)
(7.61075e-06 0 1.10836e-06)
(1.35836e-05 0 1.98695e-06)
(2.356e-05 0 3.46119e-06)
(3.97545e-05 0 5.86379e-06)
(6.53294e-05 0 9.66949e-06)
(0.000104664 0 1.55328e-05)
(0.000163647 0 2.43249e-05)
(0.000249965 0 3.71638e-05)
(0.000373371 0 5.54293e-05)
(0.000545883 0 8.07499e-05)
(0.000781866 0 0.00011495)
(0.00109796 0 0.000159938)
(0.00151276 0 0.000217522)
(0.00204627 0 0.000289142)
(0.00271894 0 0.000375517)
(0.00355038 0 0.00047622)
(0.00455748 0 0.000589236)
(0.00575189 0 0.000710567)
(0.00713626 0 0.000834044)
(0.00869861 0 0.000951496)
(0.0104033 0 0.00105356)
(0.0121753 0 0.00113125)
(0.013871 0 0.00117813)
(0.0152301 0 0.00119123)
(0.015887 0 0.00117407)
(1.46576e-07 0 2.32468e-08)
(4.97684e-07 0 7.86294e-08)
(1.08103e-06 0 1.70527e-07)
(2.14599e-06 0 3.38513e-07)
(4.08317e-06 0 6.4455e-07)
(7.51974e-06 0 1.18821e-06)
(1.34417e-05 0 2.12598e-06)
(2.33535e-05 0 3.69605e-06)
(3.94801e-05 0 6.2488e-06)
(6.50115e-05 0 1.0282e-05)
(0.000104387 0 1.64781e-05)
(0.000163608 0 2.574e-05)
(0.000250556 0 3.92175e-05)
(0.000375303 0 5.83156e-05)
(0.000550351 0 8.46725e-05)
(0.000790772 0 0.000120092)
(0.00111418 0 0.000166411)
(0.00154044 0 0.000225292)
(0.00209109 0 0.000297915)
(0.00278828 0 0.000384579)
(0.00365325 0 0.000484215)
(0.00470405 0 0.000593875)
(0.00595231 0 0.000708274)
(0.00739872 0 0.000819589)
(0.00902656 0 0.000917783)
(0.0107922 0 0.000991862)
(0.0126101 0 0.00103252)
(0.0143258 0 0.0010362)
(0.0156717 0 0.00100911)
(0.0162876 0 0.000970726)
(1.44683e-07 0 2.48666e-08)
(4.91188e-07 0 8.40202e-08)
(1.06696e-06 0 1.8185e-07)
(2.11863e-06 0 3.6013e-07)
(4.0331e-06 0 6.84042e-07)
(7.43272e-06 0 1.25798e-06)
(1.3298e-05 0 2.24547e-06)
(2.31285e-05 0 3.89449e-06)
(3.9148e-05 0 6.56835e-06)
(6.45548e-05 0 1.07808e-05)
(0.000103815 0 1.72326e-05)
(0.000162989 0 2.68449e-05)
(0.000250073 0 4.07822e-05)
(0.000375326 0 6.04552e-05)
(0.000551554 0 8.74911e-05)
(0.00079427 0 0.000123656)
(0.00112169 0 0.000170713)
(0.00155446 0 0.000230199)
(0.002115 0 0.000303104)
(0.00282639 0 0.00038945)
(0.00371055 0 0.000487783)
(0.00478562 0 0.000594619)
(0.00606224 0 0.000703953)
(0.00753836 0 0.00080703)
(0.0091922 0 0.00089274)
(0.0109728 0 0.000949151)
(0.0127862 0 0.000966894)
(0.0144721 0 0.000944743)
(0.015764 0 0.000895817)
(0.0163195 0 0.000849964)
(1.43379e-07 0 2.64092e-08)
(4.86461e-07 0 8.91003e-08)
(1.05599e-06 0 1.92347e-07)
(2.09582e-06 0 3.79789e-07)
(3.98857e-06 0 7.19219e-07)
(7.35022e-06 0 1.31879e-06)
(1.31523e-05 0 2.34725e-06)
(2.28827e-05 0 4.05951e-06)
(3.87515e-05 0 6.82737e-06)
(6.39432e-05 0 1.11741e-05)
(0.000102914 0 1.78095e-05)
(0.000161726 0 2.76612e-05)
(0.000248397 0 4.18938e-05)
(0.000373244 0 6.19073e-05)
(0.000549176 0 8.93024e-05)
(0.000791877 0 0.000125798)
(0.0011198 0 0.000173088)
(0.0015539 0 0.000232615)
(0.00211691 0 0.00030526)
(0.00283214 0 0.000390923)
(0.00372153 0 0.00048802)
(0.00480274 0 0.000592924)
(0.00608512 0 0.000699446)
(0.00756412 0 0.000798556)
(0.009214 0 0.000878725)
(0.0109785 0 0.000927531)
(0.0127584 0 0.000935475)
(0.014391 0 0.000902817)
(0.0156162 0 0.000847847)
(0.0161125 0 0.000807024)
(1.42763e-07 0 2.79167e-08)
(4.83819e-07 0 9.40044e-08)
(1.04874e-06 0 2.02289e-07)
(2.07862e-06 0 3.97984e-07)
(3.95129e-06 0 7.5095e-07)
(7.27484e-06 0 1.37212e-06)
(1.30084e-05 0 2.43384e-06)
(2.26212e-05 0 4.19525e-06)
(3.82967e-05 0 7.0326e-06)
(6.31832e-05 0 1.14727e-05)
(0.00010169 0 1.82263e-05)
(0.00015982 0 2.82168e-05)
(0.000245522 0 4.25961e-05)
(0.000369033 0 6.27397e-05)
(0.000543177 0 9.02094e-05)
(0.00078354 0 0.000126671)
(0.00110847 0 0.000173754)
(0.00153877 0 0.00023284)
(0.00209699 0 0.00030477)
(0.00280613 0 0.000389452)
(0.00368767 0 0.000485391)
(0.00475853 0 0.000589139)
(0.00602697 0 0.000694761)
(0.00748695 0 0.000793465)
(0.00911089 0 0.000873766)
(0.0108405 0 0.000922868)
(0.0125752 0 0.000930488)
(0.0141534 0 0.000896698)
(0.0153225 0 0.000842977)
(0.0157806 0 0.000811826)
(1.4298e-07 0 2.94399e-08)
(4.83715e-07 0 9.88953e-08)
(1.04612e-06 0 2.12006e-07)
(2.06867e-06 0 4.15323e-07)
(3.9241e-06 0 7.80308e-07)
(7.21137e-06 0 1.41983e-06)
(1.2874e-05 0 2.50835e-06)
(2.23563e-05 0 4.30689e-06)
(3.78028e-05 0 7.19245e-06)
(6.2304e-05 0 1.16901e-05)
(0.000100186 0 1.85042e-05)
(0.000157336 0 2.85447e-05)
(0.000241545 0 4.29394e-05)
(0.000362843 0 6.30274e-05)
(0.000533781 0 9.03206e-05)
(0.000769603 0 0.000126425)
(0.00108822 0 0.00017291)
(0.0015099 0 0.000231115)
(0.00205654 0 0.000301889)
(0.00275039 0 0.000385238)
(0.00361204 0 0.000479898)
(0.00465757 0 0.000582824)
(0.00589449 0 0.000688644)
(0.00731652 0 0.000789187)
(0.00889673 0 0.000873368)
(0.0105789 0 0.00092804)
(0.0122659 0 0.000941158)
(0.0137997 0 0.000909693)
(0.0149307 0 0.000853813)
(0.0153662 0 0.00082213)
(1.44216e-07 0 3.10389e-08)
(4.86743e-07 0 1.03964e-07)
(1.04935e-06 0 2.21886e-07)
(2.06823e-06 0 4.32525e-07)
(3.91103e-06 0 8.08571e-07)
(7.16675e-06 0 1.46412e-06)
(1.2761e-05 0 2.57452e-06)
(2.21076e-05 0 4.4006e-06)
(3.73017e-05 0 7.31698e-06)
(6.1357e-05 0 1.18423e-05)
(9.84843e-05 0 1.86684e-05)
(0.000154403 0 2.8683e-05)
(0.000236667 0 4.29807e-05)
(0.00035498 0 6.2853e-05)
(0.00052146 0 8.97514e-05)
(0.000750779 0 0.000125214)
(0.00106013 0 0.000170747)
(0.00146888 0 0.000227655)
(0.00199786 0 0.000296809)
(0.00266812 0 0.000378351)
(0.00349904 0 0.000471316)
(0.00450557 0 0.000573168)
(0.00569465 0 0.000679274)
(0.00706051 0 0.000782374)
(0.00857883 0 0.000872212)
(0.0101994 0 0.000935773)
(0.0118355 0 0.000959267)
(0.0133406 0 0.000934518)
(0.0144601 0 0.000874126)
(0.0148363 0 0.000828109)
(0.000537438 0 -0.000430288)
(0.00134048 0 -0.000369689)
(0.00225434 0 -0.000278469)
(0.00294071 0 -0.000196592)
(0.00333259 0 -0.000132436)
(0.00344888 0 -8.47324e-05)
(0.00334405 0 -5.06568e-05)
(0.00308292 0 -2.73803e-05)
(0.00272682 0 -1.23189e-05)
(0.00232732 0 -3.22991e-06)
(0.00192398 0 1.73194e-06)
(0.00154453 0 4.00383e-06)
(0.0012061 0 4.64504e-06)
(0.000917181 0 4.39302e-06)
(0.000679702 0 3.72987e-06)
(0.000491063 0 2.94786e-06)
(0.000345902 0 2.20671e-06)
(0.000237527 0 1.57949e-06)
(0.000158956 0 1.087e-06)
(0.000103618 0 7.21674e-07)
(6.57556e-05 0 4.63165e-07)
(4.05939e-05 0 2.87694e-07)
(2.43606e-05 0 1.73062e-07)
(1.41987e-05 0 1.00845e-07)
(8.03032e-06 0 5.69156e-08)
(4.40103e-06 0 3.10903e-08)
(2.33015e-06 0 1.63933e-08)
(1.17864e-06 0 8.24967e-09)
(5.40154e-07 0 3.75145e-09)
(1.54286e-07 0 1.05277e-09)
(0.00201313 0 -0.00110928)
(0.00252816 0 -0.000951638)
(0.00313345 0 -0.000738422)
(0.00356565 0 -0.000533792)
(0.00376281 0 -0.000364295)
(0.00373478 0 -0.000234188)
(0.00352581 0 -0.000139714)
(0.00319157 0 -7.46743e-05)
(0.00278578 0 -3.24838e-05)
(0.00235386 0 -7.07733e-06)
(0.00193051 0 6.67065e-06)
(0.00153969 0 1.28073e-05)
(0.00119568 0 1.43379e-05)
(0.000904872 0 1.33632e-05)
(0.000667677 0 1.12583e-05)
(0.000480455 0 8.85591e-06)
(0.000337164 0 6.60836e-06)
(0.000230696 0 4.71923e-06)
(0.000153844 0 3.24205e-06)
(9.99397e-05 0 2.14936e-06)
(6.32021e-05 0 1.37776e-06)
(3.88819e-05 0 8.54866e-07)
(2.3251e-05 0 5.13734e-07)
(1.35035e-05 0 2.99078e-07)
(7.60937e-06 0 1.68646e-07)
(4.15512e-06 0 9.20462e-08)
(2.19226e-06 0 4.84985e-08)
(1.10592e-06 0 2.43964e-08)
(5.07209e-07 0 1.1104e-08)
(1.47089e-07 0 3.13901e-09)
(0.00415913 0 -0.0014653)
(0.00443855 0 -0.00129217)
(0.00467337 0 -0.00102819)
(0.00473431 0 -0.00075627)
(0.00461857 0 -0.000520681)
(0.00434599 0 -0.000334787)
(0.00395346 0 -0.000197651)
(0.00348513 0 -0.000102512)
(0.00298353 0 -4.07404e-05)
(0.0024845 0 -3.80413e-06)
(0.00201508 0 1.57629e-05)
(0.00159325 0 2.39712e-05)
(0.00122882 0 2.53362e-05)
(0.000924858 0 2.30347e-05)
(0.000679399 0 1.91522e-05)
(0.00048712 0 1.49482e-05)
(0.000340824 0 1.10995e-05)
(0.000232629 0 7.9007e-06)
(0.000154819 0 5.41564e-06)
(0.000100405 0 3.58484e-06)
(6.34094e-05 0 2.29542e-06)
(3.89658e-05 0 1.42316e-06)
(2.32803e-05 0 8.548e-07)
(1.3511e-05 0 4.97457e-07)
(7.60962e-06 0 2.8045e-07)
(4.15378e-06 0 1.53056e-07)
(2.19122e-06 0 8.06522e-08)
(1.10559e-06 0 4.0592e-08)
(5.0748e-07 0 1.85106e-08)
(1.47293e-07 0 5.27237e-09)
(0.0066742 0 -0.00155904)
(0.00672011 0 -0.00139477)
(0.00656841 0 -0.00112812)
(0.00621393 0 -0.000839041)
(0.0057283 0 -0.00057938)
(0.00515473 0 -0.000369507)
(0.00452941 0 -0.000212443)
(0.00388702 0 -0.000102827)
(0.00325863 0 -3.18702e-05)
(0.00266925 0 9.87817e-06)
(0.00213677 0 3.10429e-05)
(0.00167181 0 3.87408e-05)
(0.00127848 0 3.84005e-05)
(0.000955567 0 3.38759e-05)
(0.000697952 0 2.77044e-05)
(0.000498058 0 2.14117e-05)
(0.000347109 0 1.58022e-05)
(0.000236143 0 1.12048e-05)
(0.00015673 0 7.662e-06)
(0.000101414 0 5.06445e-06)
(6.39269e-05 0 3.24031e-06)
(3.92235e-05 0 2.0084e-06)
(2.34051e-05 0 1.2064e-06)
(1.35701e-05 0 7.02325e-07)
(7.63717e-06 0 3.96184e-07)
(4.1666e-06 0 2.16394e-07)
(2.19731e-06 0 1.14146e-07)
(1.10864e-06 0 5.75299e-08)
(5.09078e-07 0 2.62946e-08)
(1.47821e-07 0 7.52761e-09)
(0.00923605 0 -0.00143393)
(0.00906726 0 -0.00129307)
(0.00855602 0 -0.00105456)
(0.00780037 0 -0.000785878)
(0.00694382 0 -0.000537914)
(0.00605809 0 -0.000333833)
(0.00518426 0 -0.000179632)
(0.00435143 0 -7.20021e-05)
(0.00358129 0 -3.22925e-06)
(0.00288901 0 3.57703e-05)
(0.00228349 0 5.36714e-05)
(0.00176781 0 5.7829e-05)
(0.00134 0 5.39496e-05)
(0.000994161 0 4.61219e-05)
(0.000721635 0 3.7041e-05)
(0.000512266 0 2.83107e-05)
(0.000355437 0 2.07475e-05)
(0.00024091 0 1.46459e-05)
(0.000159395 0 9.98727e-06)
(0.000102869 0 6.59071e-06)
(6.47025e-05 0 4.21345e-06)
(3.96284e-05 0 2.61106e-06)
(2.36125e-05 0 1.56882e-06)
(1.36747e-05 0 9.13891e-07)
(7.68937e-06 0 5.16015e-07)
(4.19252e-06 0 2.82188e-07)
(2.21018e-06 0 1.49073e-07)
(1.11503e-06 0 7.52681e-08)
(5.12108e-07 0 3.44843e-08)
(1.48735e-07 0 9.91085e-09)
(0.0115771 0 -0.0011416)
(0.0112327 0 -0.00103353)
(0.0104212 0 -0.000842194)
(0.00931931 0 -0.000619173)
(0.00813214 0 -0.000409226)
(0.00695925 0 -0.000234584)
(0.00584995 0 -0.00010249)
(0.00483174 0 -1.14326e-05)
(0.00392028 0 4.46907e-05)
(0.00312321 0 7.37663e-05)
(0.00244192 0 8.36755e-05)
(0.00187274 0 8.12878e-05)
(0.00140803 0 7.20228e-05)
(0.00103733 0 5.97927e-05)
(0.000748434 0 4.71674e-05)
(0.000528539 0 3.56425e-05)
(0.000365102 0 2.59294e-05)
(0.000246524 0 1.82177e-05)
(0.000162585 0 1.23864e-05)
(0.000104643 0 8.16006e-06)
(6.56703e-05 0 5.21261e-06)
(4.01466e-05 0 3.22988e-06)
(2.38857e-05 0 1.94144e-06)
(1.38169e-05 0 1.13192e-06)
(7.76265e-06 0 6.39895e-07)
(4.23006e-06 0 3.50467e-07)
(2.2293e-06 0 1.85481e-07)
(1.12463e-06 0 9.38493e-08)
(5.16601e-07 0 4.31048e-08)
(1.50065e-07 0 1.24295e-08)
(0.0135109 0 -0.000736729)
(0.0130427 0 -0.000667388)
(0.0120098 0 -0.000533731)
(0.0106416 0 -0.000371033)
(0.0091904 0 -0.000215556)
(0.00777981 0 -8.62295e-05)
(0.00646887 0 1.00053e-05)
(0.00528686 0 7.35102e-05)
(0.00424702 0 0.000108762)
(0.00335239 0 0.000122078)
(0.00259906 0 0.000120041)
(0.00197809 0 0.00010854)
(0.00147711 0 9.22867e-05)
(0.00108162 0 7.46916e-05)
(0.000776214 0 5.79644e-05)
(0.000545584 0 4.33336e-05)
(0.000375335 0 3.13024e-05)
(0.000252539 0 2.18919e-05)
(0.000166048 0 1.48422e-05)
(0.0001066 0 9.76233e-06)
(6.67558e-05 0 6.23203e-06)
(4.07396e-05 0 3.86176e-06)
(2.42054e-05 0 2.32271e-06)
(1.39875e-05 0 1.35569e-06)
(7.85294e-06 0 7.67546e-07)
(4.27752e-06 0 4.21159e-07)
(2.25404e-06 0 2.23376e-07)
(1.13726e-06 0 1.133e-07)
(5.22551e-07 0 5.21774e-08)
(1.51828e-07 0 1.50909e-08)
(0.0149323 0 -0.000275936)
(0.0143992 0 -0.000247353)
(0.0132325 0 -0.000174236)
(0.0116885 0 -7.71025e-05)
(0.0100521 0 1.67674e-05)
(0.00846584 0 9.28485e-05)
(0.0069989 0 0.000145594)
(0.00568506 0 0.000174941)
(0.00453829 0 0.000184057)
(0.00356006 0 0.000177689)
(0.00274349 0 0.00016095)
(0.00207615 0 0.0001385)
(0.00154213 0 0.000114095)
(0.00112375 0 9.04332e-05)
(0.000802903 0 6.92019e-05)
(0.000562124 0 5.1246e-05)
(0.00038537 0 3.67836e-05)
(0.000258505 0 2.56194e-05)
(0.000169528 0 1.73257e-05)
(0.000108595 0 1.1381e-05)
(6.78825e-05 0 7.26248e-06)
(4.13677e-05 0 4.50178e-06)
(2.4552e-05 0 2.71013e-06)
(1.41772e-05 0 1.58404e-06)
(7.95612e-06 0 8.98476e-07)
(4.33325e-06 0 4.94092e-07)
(2.28382e-06 0 2.62726e-07)
(1.15277e-06 0 1.33632e-07)
(5.29962e-07 0 6.17201e-08)
(1.54038e-07 0 1.79026e-08)
(0.0158162 0 0.00018264)
(0.0152774 0 0.000175417)
(0.0140616 0 0.000193381)
(0.0124302 0 0.000228281)
(0.0106869 0 0.000261595)
(0.00898872 0 0.000283656)
(0.00741486 0 0.000291044)
(0.0060054 0 0.000283966)
(0.00477758 0 0.000264772)
(0.00373373 0 0.000236907)
(0.00286613 0 0.000204097)
(0.00216052 0 0.000169748)
(0.00159873 0 0.000136582)
(0.00116083 0 0.000106494)
(0.000826642 0 8.05646e-05)
(0.000576994 0 5.91909e-05)
(0.000394496 0 4.22609e-05)
(0.000264001 0 2.93339e-05)
(0.000172783 0 1.97987e-05)
(0.000110495 0 1.29942e-05)
(6.89782e-05 0 8.29192e-06)
(4.19937e-05 0 5.14352e-06)
(2.49071e-05 0 3.10047e-06)
(1.43775e-05 0 1.81544e-06)
(8.0685e-06 0 1.03202e-06)
(4.39583e-06 0 5.69027e-07)
(2.31822e-06 0 3.03473e-07)
(1.17112e-06 0 1.54854e-07)
(5.38873e-07 0 7.1751e-08)
(1.56719e-07 0 2.08723e-08)
(0.0162208 0 0.000591269)
(0.0157205 0 0.000559026)
(0.0145236 0 0.000533833)
(0.0128782 0 0.000516381)
(0.0110952 0 0.000496386)
(0.00934188 0 0.000469212)
(0.00770679 0 0.000434052)
(0.00623716 0 0.000391985)
(0.004955 0 0.000345082)
(0.00386511 0 0.00029589)
(0.00296048 0 0.000247005)
(0.00222638 0 0.000200717)
(0.00164351 0 0.000158773)
(0.00119053 0 0.000122273)
(0.000845894 0 9.16863e-05)
(0.000589216 0 6.69473e-05)
(0.00040211 0 4.76022e-05)
(0.000268668 0 3.2958e-05)
(0.000175605 0 2.22161e-05)
(0.000112183 0 1.45764e-05)
(6.99806e-05 0 9.30636e-06)
(4.25858e-05 0 5.77958e-06)
(2.52554e-05 0 3.48997e-06)
(1.45816e-05 0 2.0481e-06)
(8.18737e-06 0 1.16743e-06)
(4.4644e-06 0 6.45694e-07)
(2.3571e-06 0 3.45554e-07)
(1.19239e-06 0 1.76974e-07)
(5.49398e-07 0 8.22926e-08)
(1.59917e-07 0 2.40102e-08)
(0.0162553 0 0.000922008)
(0.0158176 0 0.00087739)
(0.0146817 0 0.000823854)
(0.0130727 0 0.00076713)
(0.011299 0 0.00070449)
(0.0095347 0 0.000636284)
(0.00787622 0 0.000564551)
(0.00637774 0 0.000491638)
(0.00506627 0 0.000419797)
(0.00394971 0 0.000351091)
(0.00302258 0 0.000287313)
(0.00227056 0 0.000229871)
(0.00167408 0 0.000179686)
(0.00121116 0 0.000137156)
(0.000859519 0 0.000102187)
(0.000598046 0 7.42839e-05)
(0.000407747 0 5.26688e-05)
(0.000272225 0 3.64093e-05)
(0.000177832 0 2.45305e-05)
(0.00011357 0 1.6101e-05)
(7.08428e-05 0 1.02911e-05)
(4.31208e-05 0 6.40222e-06)
(2.55864e-05 0 3.87478e-06)
(1.47852e-05 0 2.28025e-06)
(8.31147e-06 0 1.30397e-06)
(4.53888e-06 0 7.23843e-07)
(2.40075e-06 0 3.88928e-07)
(1.21691e-06 0 2.00022e-07)
(5.61755e-07 0 9.33787e-08)
(1.63709e-07 0 2.733e-08)
(0.0160545 0 0.0011666)
(0.0156773 0 0.00112209)
(0.0146147 0 0.00105369)
(0.0130661 0 0.000970125)
(0.0113304 0 0.000875921)
(0.00958478 0 0.000776092)
(0.00793146 0 0.000675339)
(0.00642996 0 0.000577343)
(0.00511131 0 0.000484783)
(0.00398616 0 0.000399564)
(0.00305069 0 0.000322993)
(0.00229143 0 0.000255853)
(0.00168911 0 0.000198435)
(0.00122173 0 0.000150574)
(0.000866813 0 0.000111711)
(0.000603018 0 8.0981e-05)
(0.000411111 0 5.73276e-05)
(0.000274494 0 3.96094e-05)
(0.000179362 0 2.66962e-05)
(0.000114602 0 1.75421e-05)
(7.15377e-05 0 1.12322e-05)
(4.35866e-05 0 7.00416e-06)
(2.58957e-05 0 4.25133e-06)
(1.49877e-05 0 2.51029e-06)
(8.4414e-06 0 1.44101e-06)
(4.62021e-06 0 8.03317e-07)
(2.45002e-06 0 4.33612e-07)
(1.24528e-06 0 2.24061e-07)
(5.76298e-07 0 1.05062e-07)
(1.68212e-07 0 3.08516e-08)
(0.015732 0 0.00134431)
(0.0153929 0 0.00130323)
(0.0143917 0 0.0012254)
(0.0129058 0 0.001123)
(0.0112197 0 0.0010064)
(0.00951043 0 0.000883922)
(0.00788293 0 0.000762047)
(0.00639929 0 0.000645422)
(0.00509268 0 0.000537145)
(0.0039754 0 0.000439145)
(0.00304494 0 0.000352491)
(0.00228876 0 0.000277585)
(0.00168826 0 0.000214297)
(0.00122191 0 0.000162056)
(0.000867524 0 0.000119956)
(0.000603954 0 8.68509e-05)
(0.000412089 0 6.14645e-05)
(0.000275409 0 4.24901e-05)
(0.00018016 0 2.86739e-05)
(0.000115263 0 1.88778e-05)
(7.20613e-05 0 1.21177e-05)
(4.39844e-05 0 7.57944e-06)
(2.61866e-05 0 4.61685e-06)
(1.51924e-05 0 2.73709e-06)
(8.58007e-06 0 1.57824e-06)
(4.71058e-06 0 8.84117e-07)
(2.50642e-06 0 4.7972e-07)
(1.27845e-06 0 2.49208e-07)
(5.93554e-07 0 1.17424e-07)
(1.73599e-07 0 3.46045e-08)
(0.01533 0 0.0014819)
(0.0150129 0 0.00143473)
(0.0140531 0 0.00134381)
(0.0126209 0 0.00122644)
(0.0109869 0 0.00109483)
(0.00932531 0 0.000957942)
(0.00773993 0 0.000822645)
(0.00629202 0 0.000693952)
(0.00501451 0 0.000575228)
(0.00392007 0 0.000468507)
(0.00300694 0 0.000374802)
(0.00226351 0 0.000294343)
(0.0016721 0 0.000226766)
(0.00121203 0 0.000171263)
(0.000861841 0 0.000126703)
(0.000600968 0 9.17546e-05)
(0.000410753 0 6.49942e-05)
(0.00027502 0 4.50009e-05)
(0.000180265 0 3.04347e-05)
(0.000115582 0 2.00923e-05)
(7.24345e-05 0 1.29397e-05)
(4.43301e-05 0 8.12421e-06)
(2.64704e-05 0 4.96977e-06)
(1.54073e-05 0 2.96023e-06)
(8.73301e-06 0 1.71571e-06)
(4.81363e-06 0 9.66484e-07)
(2.57225e-06 0 5.275e-07)
(1.31781e-06 0 2.75658e-07)
(6.14247e-07 0 1.30585e-07)
(1.80101e-07 0 3.86307e-08)
(0.0148203 0 0.00158644)
(0.0145593 0 0.00151206)
(0.0136116 0 0.00140512)
(0.0122177 0 0.00127907)
(0.0106381 0 0.001141)
(0.00903652 0 0.000998118)
(0.00750969 0 0.000856914)
(0.00611464 0 0.000722518)
(0.00488212 0 0.000598522)
(0.00382424 0 0.000487143)
(0.00293965 0 0.000389483)
(0.00221774 0 0.000305772)
(0.00164203 0 0.000235583)
(0.00119302 0 0.00017801)
(0.000850371 0 0.000131828)
(0.000594453 0 9.56134e-05)
(0.000407359 0 6.78687e-05)
(0.000273495 0 4.71139e-05)
(0.000179785 0 3.19633e-05)
(0.00011563 0 2.11778e-05)
(7.27049e-05 0 1.36947e-05)
(4.46547e-05 0 8.63742e-06)
(2.67674e-05 0 5.31019e-06)
(1.56457e-05 0 3.18025e-06)
(8.90857e-06 0 1.85407e-06)
(4.93457e-06 0 1.05097e-06)
(2.65066e-06 0 5.77379e-07)
(1.36518e-06 0 3.03703e-07)
(6.39331e-07 0 1.44716e-07)
(1.88031e-07 0 4.29892e-08)
(1.46759e-07 0 3.28183e-08)
(4.93754e-07 0 1.09534e-07)
(1.06005e-06 0 2.32567e-07)
(2.08019e-06 0 4.50733e-07)
(3.91695e-06 0 8.37707e-07)
(7.14898e-06 0 1.50828e-06)
(1.26821e-05 0 2.63766e-06)
(2.1895e-05 0 4.48478e-06)
(3.6824e-05 0 7.41908e-06)
(6.03883e-05 0 1.19487e-05)
(9.66533e-05 0 1.87469e-05)
(0.000151122 0 2.8672e-05)
(0.000231037 0 4.27752e-05)
(0.000345667 0 6.22898e-05)
(0.000506537 0 8.85948e-05)
(0.000727541 0 0.000123148)
(0.00102487 0 0.000167381)
(0.00141666 0 0.000222551)
(0.00192225 0 0.000289543)
(0.00256101 0 0.000368622)
(0.00335057 0 0.000459115)
(0.00430431 0 0.000559008)
(0.00542797 0 0.000664464)
(0.00671585 0 0.000769342)
(0.00814592 0 0.00086479)
(0.00967415 0 0.000939226)
(0.0112298 0 0.00097974)
(0.0126989 0 0.000977109)
(0.0139197 0 0.000939417)
(0.0145078 0 0.000917676)
(1.49664e-07 0 3.46084e-08)
(5.01806e-07 0 1.15082e-07)
(1.07219e-06 0 2.42986e-07)
(2.09313e-06 0 4.67965e-07)
(3.92121e-06 0 8.64171e-07)
(7.12189e-06 0 1.5462e-06)
(1.2576e-05 0 2.68761e-06)
(2.16177e-05 0 4.54308e-06)
(3.62084e-05 0 7.4733e-06)
(5.91472e-05 0 1.19708e-05)
(9.43139e-05 0 1.86835e-05)
(0.000146935 0 2.84314e-05)
(0.000223852 0 4.22117e-05)
(0.000333777 0 6.11864e-05)
(0.00048747 0 8.6648e-05)
(0.000697823 0 0.000119958)
(0.000979745 0 0.000162456)
(0.00134978 0 0.000215332)
(0.00182532 0 0.000279452)
(0.00242352 0 0.000355162)
(0.00315965 0 0.000442033)
(0.00404482 0 0.000538522)
(0.00508245 0 0.000641541)
(0.00626547 0 0.000746135)
(0.00757232 0 0.000845248)
(0.00895996 0 0.00092966)
(0.0103723 0 0.000989543)
(0.011721 0 0.00101685)
(0.0128807 0 0.00101546)
(0.0136509 0 0.00102468)
(1.52284e-07 0 3.62627e-08)
(5.08774e-07 0 1.20133e-07)
(1.08143e-06 0 2.52184e-07)
(2.09903e-06 0 4.8247e-07)
(3.90963e-06 0 8.84936e-07)
(7.0615e-06 0 1.57284e-06)
(1.24034e-05 0 2.71635e-06)
(2.12136e-05 0 4.56316e-06)
(3.53606e-05 0 7.46141e-06)
(5.74953e-05 0 1.18828e-05)
(9.12705e-05 0 1.84429e-05)
(0.000141576 0 2.79147e-05)
(0.00021477 0 4.12312e-05)
(0.000318888 0 5.94711e-05)
(0.000463778 0 8.3826e-05)
(0.000661126 0 0.000115545)
(0.000924319 0 0.000155854)
(0.00126805 0 0.000205854)
(0.00170736 0 0.000266348)
(0.00225669 0 0.000337695)
(0.00292848 0 0.000419623)
(0.00373134 0 0.000510993)
(0.00466513 0 0.000609269)
(0.00572022 0 0.000710489)
(0.00687632 0 0.000809392)
(0.00809146 0 0.00089909)
(0.00930231 0 0.000972453)
(0.0104343 0 0.00102463)
(0.011394 0 0.00105651)
(0.0120213 0 0.00109124)
(1.54257e-07 0 3.76974e-08)
(5.13474e-07 0 1.24417e-07)
(1.08536e-06 0 2.59622e-07)
(2.09349e-06 0 4.93285e-07)
(3.87469e-06 0 8.98377e-07)
(6.95543e-06 0 1.58561e-06)
(1.2145e-05 0 2.71988e-06)
(2.06538e-05 0 4.53921e-06)
(3.42394e-05 0 7.37536e-06)
(5.53779e-05 0 1.16741e-05)
(8.74568e-05 0 1.80123e-05)
(0.000134975 0 2.71084e-05)
(0.000203737 0 3.98212e-05)
(0.000301005 0 5.71357e-05)
(0.000435588 0 8.01295e-05)
(0.000617809 0 0.000109921)
(0.000859336 0 0.000147604)
(0.00117297 0 0.000194183)
(0.00157104 0 0.000250338)
(0.00206492 0 0.000316366)
(0.00266358 0 0.00039202)
(0.00337348 0 0.000476514)
(0.00419238 0 0.000567828)
(0.00510681 0 0.000662573)
(0.00609388 0 0.000756496)
(0.00711543 0 0.000844438)
(0.00811411 0 0.000921083)
(0.00901764 0 0.000982679)
(0.00973729 0 0.00102886)
(0.0101391 0 0.00106965)
(1.55202e-07 0 3.88202e-08)
(5.14697e-07 0 1.27643e-07)
(1.08159e-06 0 2.64731e-07)
(2.07234e-06 0 4.99428e-07)
(3.80948e-06 0 9.029e-07)
(6.79285e-06 0 1.58205e-06)
(1.17847e-05 0 2.69464e-06)
(1.99162e-05 0 4.46639e-06)
(3.2817e-05 0 7.2091e-06)
(5.27649e-05 0 1.13381e-05)
(8.28496e-05 0 1.73858e-05)
(0.000127138 0 2.60093e-05)
(0.000190822 0 3.79864e-05)
(0.000280328 0 5.41994e-05)
(0.000403344 0 7.56023e-05)
(0.000568718 0 0.000103169)
(0.000786141 0 0.000137819)
(0.00106655 0 0.000180462)
(0.00142001 0 0.000231692)
(0.00185451 0 0.000291642)
(0.0023764 0 0.000360112)
(0.00298767 0 0.000436264)
(0.00368416 0 0.000518459)
(0.00445213 0 0.00060399)
(0.00526793 0 0.0006893)
(0.00609548 0 0.00077014)
(0.00688406 0 0.000842138)
(0.00756879 0 0.000901803)
(0.00807129 0 0.000947419)
(0.00829375 0 0.000981241)
(1.548e-07 0 3.955e-08)
(5.11433e-07 0 1.29558e-07)
(1.06817e-06 0 2.67031e-07)
(2.03221e-06 0 5.0009e-07)
(3.70865e-06 0 8.97243e-07)
(6.5658e-06 0 1.56032e-06)
(1.13115e-05 0 2.63813e-06)
(1.8987e-05 0 4.34157e-06)
(3.10796e-05 0 6.95928e-06)
(4.96486e-05 0 1.0872e-05)
(7.74606e-05 0 1.65633e-05)
(0.000118119 0 2.46236e-05)
(0.000176174 0 3.57442e-05)
(0.00025718 0 5.07004e-05)
(0.000367687 0 7.0319e-05)
(0.000515115 0 9.54334e-05)
(0.000707491 0 0.000126827)
(0.000953094 0 0.000165175)
(0.00125962 0 0.000210941)