/*--------------------------------*- C++ -*----------------------------------*\
| =========                 |                                                 |
| \\      /  F ield         | OpenFOAM: The Open Source CFD Toolbox           |
|  \\    /   O peration     | Version:  2012                                  |
|   \\  /    A nd           | Website:  www.openfoam.com                      |
|    \\/     M anipulation  |                                                 |
\*---------------------------------------------------------------------------*/
FoamFile
{
    version     2.0;
    format      ascii;
    class       volVectorField;
    location    "0.2";
    object      Force;
}
// * * * * * * * * * * * * * * * * * * * * * * * * * * * * * * * * * * * * * //

dimensions      [1 1 -2 0 0 0 0];


internalField   uniform (0 0 0);

boundaryField
{
    inlet
    {
        type            calculated;
        value           uniform (0 0 0);
    }
    outlet
    {
        type            calculated;
        value           uniform (0 0 0);
    }
    flap
    {
        type            calculated;
        value           nonuniform List<vector> 
33
(
(2.42389 1.26743e-18 -0.0373818)
(2.41168 4.05e-19 -0.0620828)
(2.3928 -1.64735e-18 -0.0797002)
(2.36717 2.5783e-21 -0.0841225)
(2.33632 1.62339e-18 -0.0783172)
(2.30024 1.62174e-18 -0.0653739)
(2.25722 1.61599e-18 -0.0481836)
(2.20529 -7.26579e-24 -0.0290999)
(2.14031 -3.23327e-18 -0.012032)
(2.05481 -7.29137e-23 0.000697702)
(1.93758 -1.66457e-18 0.00871839)
(1.77009 1.00647e-23 0.0124623)
(1.51599 1.62795e-18 0.0128498)
(1.09189 3.25513e-18 0.0121268)
(0.244592 -1.02043e-20 0.0100689)
(-0.00825544 5.77183e-20 2.73678)
(-0.0108995 5.20433e-20 2.46474)
(-0.00957498 8.01709e-19 1.92522)
(2.04082 1.749e-22 -0.0296638)
(2.06079 -1.69851e-22 -0.0535196)
(2.09134 3.24649e-18 -0.0698924)
(2.13382 -1.6364e-18 -0.0761763)
(2.1891 -3.2841e-18 -0.0737458)
(2.25926 -7.63277e-23 -0.0645272)
(2.34668 1.65157e-18 -0.0504292)
(2.45417 -2.06519e-18 -0.032907)
(2.5858 5.51013e-39 -0.0154201)
(2.74456 1.64711e-18 -0.000664345)
(2.92777 2.86054e-23 0.0105487)
(3.11645 2.92638e-23 0.0172701)
(3.26825 2.20618e-22 0.0191343)
(3.32558 -1.7771e-18 0.0193949)
(3.233 -1.63679e-18 0.0232383)
)
;
    }
    upperWall
    {
        type            calculated;
        value           uniform (0 0 0);
    }
    lowerWall
    {
        type            calculated;
        value           uniform (0 0 0);
    }
    frontAndBack
    {
        type            empty;
    }
}


// ************************************************************************* //
