/*--------------------------------*- C++ -*----------------------------------*\
| =========                 |                                                 |
| \\      /  F ield         | OpenFOAM: The Open Source CFD Toolbox           |
|  \\    /   O peration     | Version:  2012                                  |
|   \\  /    A nd           | Website:  www.openfoam.com                      |
|    \\/     M anipulation  |                                                 |
\*---------------------------------------------------------------------------*/
FoamFile
{
    version     2.0;
    format      ascii;
    class       volScalarField;
    location    "0.2";
    object      p;
}
// * * * * * * * * * * * * * * * * * * * * * * * * * * * * * * * * * * * * * //

dimensions      [0 2 -2 0 0 0 0];


internalField   nonuniform List<scalar> 
2790
(
72.0869
71.9752
72.1987
72.7032
73.3958
74.2454
75.2494
76.4065
77.7122
79.1621
80.7525
82.4806
84.3432
86.3359
88.4526
90.685
93.0212
95.4454
97.9368
100.469
103.009
105.516
107.945
110.244
112.358
114.234
115.822
117.082
117.985
118.548
71.8897
71.889
72.1381
72.6405
73.3303
74.1782
75.1795
76.3325
77.6331
79.0769
80.6603
82.3806
84.2347
86.2184
88.3261
90.5494
92.8772
95.2943
97.7806
100.31
102.851
105.364
107.803
110.116
112.25
114.147
115.758
117.038
117.953
118.525
71.7021
71.7714
72.0403
72.5333
73.2116
74.0491
75.0389
76.1783
77.4632
78.8892
80.4528
82.1512
83.9812
85.9389
88.0188
90.213
92.511
94.8983
97.3559
99.8594
102.378
104.874
107.304
109.616
111.756
113.667
115.295
116.591
117.512
118.075
71.4934
71.5939
71.8763
72.3621
73.028
73.8521
74.826
75.9461
77.2082
78.6079
80.1418
81.8069
83.6001
85.5174
87.5537
89.7016
91.951
94.2887
96.6968
99.1526
101.627
104.086
106.486
108.778
110.909
112.819
114.452
115.753
116.667
117.208
71.254
71.369
71.6606
72.1406
72.792
73.5977
74.5494
75.6429
76.8736
78.2374
79.7307
81.3503
83.0932
84.9555
86.932
89.0158
91.1976
93.465
95.8018
98.1872
100.595
102.992
105.34
107.592
109.695
111.592
113.22
114.522
115.432
115.959
70.9795
71.1006
71.3955
71.8671
72.5008
73.2834
74.2073
75.2675
76.4594
77.7786
79.2213
80.7843
82.4641
84.257
86.1577
88.1597
90.2542
92.4297
94.6716
96.9611
99.2745
101.583
103.85
106.034
108.086
109.949
111.562
112.864
113.783
114.323
70.6682
70.7907
71.0836
71.5438
72.157
72.9123
73.803
74.8238
75.9695
77.2356
78.6181
80.1133
81.7177
83.427
85.2361
87.1383
89.1253
91.1863
93.3078
95.4729
97.6607
99.8455
101.997
104.077
106.042
107.843
109.421
110.718
111.658
112.248
70.3196
70.4406
70.7274
71.1729
71.7625
72.4867
73.3392
74.3146
75.4073
76.6123
77.9253
79.3424
80.8593
82.4714
84.1732
85.9578
87.8167
89.7395
91.7133
93.7226
95.7486
97.7692
99.758
101.685
103.514
105.206
106.713
107.987
108.949
109.625
69.9341
70.0517
70.3291
70.7568
71.3198
72.0091
72.8189
73.7433
74.7765
75.9131
77.1483
78.4773
79.8955
81.3975
82.977
84.6264
86.3367
88.0969
89.8942
91.7132
93.5365
95.3438
97.1132
98.8205
100.441
101.949
103.317
104.517
105.478
106.272
69.5127
69.6256
69.8909
70.2981
70.8316
71.4825
72.2453
73.1139
74.0819
75.1433
76.2927
77.5248
78.8339
80.2137
81.6566
83.1541
84.6957
86.2693
87.8604
89.4528
91.0279
92.5655
94.0449
95.4464
96.7542
97.9601
99.0645
100.081
100.968
101.894
69.057
69.164
69.4153
69.7994
70.3006
70.9101
71.6222
72.4305
73.328
74.3084
75.3652
76.4924
77.6831
78.9296
80.2232
81.5533
82.9074
84.2711
85.627
86.9557
88.2347
89.4399
90.5467
91.5333
92.3861
93.1097
93.7368
94.3493
94.9789
96.0049
68.5686
68.669
68.9045
69.2634
69.73
70.2954
70.9535
71.6976
72.5203
73.4144
74.3728
75.3882
76.4524
77.5564
78.6894
79.8384
80.9884
82.1211
83.2149
84.2444
85.1799
85.9876
86.6308
87.0733
87.2871
87.2694
87.0689
86.8485
86.7902
87.7275
68.0495
68.1428
68.3611
68.693
69.1229
69.6418
70.2432
70.92
71.6643
72.4679
73.323
74.221
75.1523
76.1061
77.0693
78.0263
78.9583
79.8425
80.6513
81.3509
81.9002
82.2492
82.3382
82.0982
81.4564
80.354
78.7873
76.9399
75.1918
75.3747
67.502
67.5876
67.7877
68.0911
68.4827
68.9531
69.4957
70.1028
70.7657
71.4757
72.2237
73.0001
73.7937
74.5917
75.3784
76.1353
76.8394
77.4625
77.9696
78.3165
78.4472
78.2893
77.7486
76.7014
74.9872
72.4059
68.7354
63.8896
58.0999
54.9496
66.9283
67.0059
67.187
67.4608
67.8127
68.2333
68.7154
69.2508
69.8303
70.4444
71.083
71.735
72.3879
73.0265
73.6329
74.1851
74.6559
75.0112
75.2081
75.191
74.887
74.1975
72.986
71.0573
68.1218
63.7359
57.1875
47.3741
32.3385
14.3622
-104.208
-104.028
-103.484
-102.449
-100.767
-98.2567
-94.7387
-90.1069
-84.3386
-77.5146
-69.8621
-61.7083
-53.3327
-44.9486
-36.9314
-29.6761
-23.3499
-18.0098
-13.6322
-10.1365
-7.40802
-5.31549
-3.72712
-2.53046
-1.63999
-0.986768
-0.509798
-0.1584
0.103303
0.297876
-104.644
-104.517
-104.032
-103.064
-101.445
-98.9785
-95.4752
-90.8216
-84.9993
-78.1022
-70.3685
-62.1405
-53.6928
-45.2396
-37.1673
-29.8711
-23.5127
-18.1465
-13.7475
-10.2342
-7.49061
-5.38408
-3.78339
-2.57708
-1.67892
-1.01874
-0.535182
-0.177698
0.0903358
0.299307
-105.63
-105.601
-105.225
-104.376
-102.866
-100.474
-96.9864
-92.2775
-86.3373
-79.2727
-71.3504
-62.9379
-54.3227
-45.7078
-37.4951
-30.1015
-23.6759
-18.2648
-13.8369
-10.3054
-7.54966
-5.43387
-3.82628
-2.61564
-1.71418
-1.04988
-0.56112
-0.197902
0.0764716
0.295856
-107.228
-107.341
-107.13
-106.467
-105.134
-102.865
-99.4085
-94.6192
-88.4907
-81.1505
-72.9081
-64.1771
-55.2731
-46.3927
-37.9555
-30.4084
-23.8811
-18.406
-13.9402
-10.3871
-7.61866
-5.49447
-3.88116
-2.66662
-1.76126
-1.09145
-0.595657
-0.224761
0.0575231
0.286967
-109.51
-109.813
-109.839
-109.459
-108.402
-106.332
-102.939
-98.0494
-91.6473
-83.8938
-75.1693
-65.9572
-56.6051
-47.3297
-38.5748
-30.8089
-24.1381
-18.5744
-14.0579
-10.4773
-7.69377
-5.56085
-3.94233
-2.72417
-1.8146
-1.13864
-0.634986
-0.255491
0.0354719
0.27485
-112.562
-113.123
-113.494
-113.538
-112.905
-111.157
-107.881
-102.861
-96.0616
-87.701
-78.2773
-68.3773
-58.3732
-48.5421
-39.3741
-31.3193
-24.4598
-18.7811
-14.1995
-10.584
-7.78199
-5.63892
-4.01468
-2.79232
-1.87751
-1.19415
-0.68132
-0.291919
0.00889624
0.258801
-116.496
-117.412
-118.289
-118.971
-118.977
-117.716
-114.626
-109.404
-101.999
-92.7506
-82.3395
-71.492
-60.6003
-50.0287
-40.3559
-31.9445
-24.8521
-19.0324
-14.3709
-10.7126
-7.88793
-5.73254
-4.1011
-2.87288
-1.95091
-1.25822
-0.734521
-0.333702
-0.0217448
0.239348
-121.447
-122.851
-124.46
-126.076
-127.015
-126.439
-123.574
-117.979
-109.627
-99.1133
-87.3649
-75.2529
-63.2388
-51.7623
-41.4976
-32.6717
-25.3105
-19.3289
-14.5757
-10.8678
-8.01634
-5.84601
-4.20489
-2.96804
-2.03615
-1.33173
-0.79515
-0.381232
-0.0567294
0.216297
-127.547
-129.591
-132.216
-135.134
-137.353
-137.661
-134.95
-128.682
-118.89
-106.662
-93.2169
-79.4985
-66.1312
-53.6868
-42.7484
-33.4674
-25.8175
-19.6639
-14.8133
-11.0519
-8.17088
-5.98275
-4.32855
-3.0794
-2.13416
-1.41516
-0.863393
-0.434519
-0.0959764
0.189749
-134.787
-137.622
-141.571
-146.204
-150.08
-151.423
-148.62
-141.201
-129.392
-115.027
-99.5375
-83.98
-69.1096
-55.6591
-44.0183
-34.277
-26.3428
-20.0228
-15.0786
-11.265
-8.3534
-6.14471
-4.47353
-3.20783
-2.24541
-1.50868
-0.939235
-0.493455
-0.139355
0.159816
-142.779
-146.517
-152.084
-158.852
-164.752
-167.161
-163.848
-154.693
-140.391
-123.618
-105.83
-88.281
-71.9507
-57.4943
-45.1879
-35.0291
-26.8468
-20.3855
-15.3626
-11.5038
-8.56307
-6.33166
-4.63955
-3.35297
-2.36946
-1.61178
-1.02217
-0.557582
-0.186487
0.126811
-150.423
-155.166
-162.619
-171.872
-180.009
-183.158
-179.021
-167.801
-150.99
-131.563
-111.401
-91.9557
-74.2983
-58.9708
-46.1224
-35.6449
-27.2849
-20.728
-15.6528
-11.7615
-8.79563
-6.54053
-4.82425
-3.51296
-2.50479
-1.72325
-1.11121
-0.62616
-0.236829
0.0911834
-155.787
-161.673
-171.198
-182.928
-193.104
-196.953
-192.462
-178.953
-159.77
-137.716
-115.393
-94.4323
-75.7888
-59.8678
-46.6909
-36.0479
-27.6128
-21.0241
-15.9327
-12.027
-9.04303
-6.76523
-5.02296
-3.6842
-2.64867
-1.841
-1.20482
-0.698056
-0.289569
0.0535913
-156.611
-163.969
-176.073
-190.279
-202.304
-206.932
-201.76
-186.059
-164.515
-140.645
-116.998
-95.2028
-76.1108
-60.0005
-46.7842
-36.1722
-27.7887
-21.2453
-16.1817
-12.2846
-9.29308
-6.9964
-5.22857
-3.86137
-2.79712
-1.96211
-1.30089
-0.77176
-0.343626
0.0149386
-150.71
-161.159
-176.705
-192.879
-205.965
-210.521
-203.657
-186.607
-164.041
-139.574
-115.693
-93.9437
-75.0716
-59.2538
-46.3295
-35.967
-27.7736
-21.3598
-16.3735
-12.513
-9.52898
-7.22116
-5.43155
-4.0376
-2.94538
-2.08339
-1.39735
-0.846008
-0.398247
-0.0241605
66.3195
66.3886
66.5498
66.7926
67.1032
67.4721
67.8916
68.3529
68.8463
69.3615
69.8874
70.4116
70.9198
71.3951
71.8168
72.1597
72.3922
72.4747
72.3563
71.9703
71.2272
70.0029
68.1193
65.3082
61.1434
54.8958
45.1778
28.9658
-3.36744
-97.5712
65.6687
65.729
65.8692
66.0796
66.3471
66.6621
67.0165
67.4012
67.8056
68.2187
68.6285
69.0213
69.3814
69.6898
69.9234
70.054
70.0462
69.8553
69.4237
68.6755
67.5084
65.7799
63.2838
59.7091
54.5596
46.9935
35.4701
17.233
-10.328
-51.333
64.9811
65.0321
65.1506
65.3276
65.5507
65.8104
66.0982
66.4045
66.7182
67.0277
67.3199
67.5802
67.7913
67.9326
67.9792
67.9002
67.6573
67.2019
66.4722
65.3869
63.8378
61.6764
58.6942
54.5903
48.9221
41.045
30.0781
14.9868
-3.91745
-26.1244
64.2581
64.2997
64.396
64.5387
64.7165
64.9201
65.1404
65.3674
65.5899
65.7953
65.97
66.0984
66.1622
66.1394
66.0036
65.7223
65.2554
64.5526
63.5504
62.1671
60.2963
57.7975
54.4827
50.1011
44.3234
36.7392
26.8925
14.2466
-1.62749
-21.3229
63.5015
63.5335
63.6073
63.7154
63.8475
63.9945
64.1471
64.295
64.4265
64.5288
64.5876
64.5867
64.507
64.3258
64.0158
63.5439
62.8697
61.943
60.702
59.0689
56.9459
54.2091
50.7025
46.2322
40.5633
33.422
24.5056
13.4493
-0.123187
-15.9649
62.7136
62.736
62.7871
62.8605
62.947
63.0376
63.123
63.1926
63.2346
63.2359
63.1819
63.056
62.8389
62.5076
62.0348
61.3878
60.5272
59.4051
57.9637
56.1327
53.8269
50.943
47.3581
42.9284
37.4909
30.8683
22.8849
13.3895
2.30679
-9.91013
61.897
61.9099
61.9385
61.9774
62.0187
62.0537
62.0731
62.0661
62.021
61.9246
61.7624
61.5177
61.1713
60.7005
60.0789
59.2751
58.2519
56.9655
55.364
53.3866
50.9623
48.0094
44.4358
40.1409
35.0205
28.9756
21.9291
13.8498
4.76243
-4.99831
61.0549
61.0583
61.0648
61.0699
61.0668
61.0476
61.0027
60.9218
60.793
60.6036
60.339
59.983
59.517
58.9193
58.1648
57.2244
56.0642
54.6454
52.9233
50.8476
48.3617
45.4042
41.9101
37.8142
33.0569
27.5919
21.3977
14.491
6.92736
-1.03429
60.1907
60.1849
60.1698
60.1419
60.0959
60.0242
59.9178
59.7662
59.5581
59.281
58.9211
58.4628
57.8883
57.1775
56.3073
55.2515
53.9802
52.4603
50.6547
48.5234
46.0237
43.1119
39.7452
35.8855
31.5038
26.5864
21.1419
15.2095
8.85957
2.29497
59.3082
59.2935
59.2576
59.198
59.1108
58.9891
58.8241
58.6059
58.3235
57.9653
57.518
56.9671
56.2963
55.4871
54.5189
53.3689
52.0117
50.4199
48.564
46.4138
43.9387
41.1096
37.9012
34.2948
30.2819
25.8683
21.0787
15.961
10.5862
5.10743
58.4117
58.3885
58.3327
58.243
58.1167
57.9478
57.728
57.4477
57.0969
56.6645
56.1385
55.5056
54.7509
53.8582
52.8098
51.5861
50.1665
48.5292
46.6519
44.5127
42.0915
39.3708
36.3383
32.9888
29.3266
25.3685
21.1462
16.7078
12.1174
7.49015
57.5058
57.4746
57.4
57.2819
57.1191
56.9062
56.6355
56.2983
55.8853
55.3864
54.7908
54.0865
53.2606
52.2993
51.1875
49.9094
48.4487
46.7889
44.914
42.8097
40.4637
37.8677
35.0186
31.9199
28.5838
25.0322
21.2981
17.4261
13.4711
9.52004
56.5953
56.5566
56.4645
56.3201
56.1234
55.8701
55.553
55.1643
54.6956
54.138
53.482
52.7171
51.8326
50.8167
49.6574
48.3423
46.8592
45.1964
43.3433
41.2915
39.0351
36.5726
33.9069
31.0471
28.0092
24.8169
21.5017
18.1029
14.6663
11.2576
55.6854
55.6397
55.5316
55.3629
55.1353
54.8453
54.4865
54.0519
53.5343
52.9259
52.2186
51.4036
50.4722
49.4149
48.2226
46.8859
45.3964
43.7464
41.93
39.9432
37.7853
35.4591
32.9716
30.3349
27.5667
24.69
21.7336
18.7312
15.7202
12.7506
54.7815
54.7295
54.6067
54.4161
54.1607
53.8378
53.442
52.9673
52.4074
51.756
51.0062
50.1512
49.1838
48.0972
46.8845
45.5394
44.0567
42.432
40.6631
38.7497
36.6944
34.503
32.185
29.7539
27.2273
24.6267
21.9774
19.3079
16.6484
14.0372
53.8891
53.8314
53.6956
53.4854
53.2052
52.8534
52.4254
51.9162
51.3205
50.6335
49.8496
48.9637
47.9704
46.865
45.643
44.3005
42.835
41.2451
39.5311
37.6956
35.7435
33.6825
31.5232
29.2794
26.9678
24.6079
22.2215
19.8324
17.465
15.1486
53.014
52.9513
52.8039
52.5765
52.2746
51.8978
51.4423
50.9039
50.2788
49.563
48.7528
47.8443
46.8341
45.719
44.4968
43.1658
41.7256
40.177
38.5225
36.7665
34.9155
32.9782
30.9655
28.8909
26.7697
24.6192
22.4581
20.3058
18.1823
16.1101
52.1621
52.095
51.9375
51.6952
51.3748
50.9767
50.498
49.9357
49.2868
48.5489
47.7192
46.7955
45.7758
44.6589
43.4439
42.1312
40.722
39.219
37.6261
35.949
34.195
32.3733
30.4948
28.5719
26.6185
24.6499
22.6817
20.7301
18.8111
16.9423
51.3394
51.2686
51.1024
50.8473
50.5112
50.0953
49.5977
49.0161
48.3489
47.5945
46.7515
45.8189
44.7962
43.6835
42.4816
41.1921
39.8179
38.3626
36.8315
35.2309
33.5685
31.8536
30.0966
28.3089
26.503
24.692
22.8892
21.108
19.3612
17.6627
50.5521
50.478
50.3045
50.0388
49.6896
49.2592
48.7464
48.1499
47.4689
46.703
45.8519
44.9158
43.8952
42.7916
41.607
40.3442
39.0069
37.6
36.1292
34.6013
33.0243
31.407
29.7592
28.0914
26.4145
24.7399
23.0789
21.4424
19.841
18.2855
49.8061
49.7293
49.5498
49.2752
48.9154
48.4734
47.9489
47.3412
46.6505
45.8774
45.0226
44.0871
43.0727
41.9818
40.8173
39.583
38.2834
36.9239
35.5108
34.051
32.5523
31.0233
29.4729
27.9106
26.3462
24.7894
23.2496
21.7362
20.2575
18.8224
49.1079
49.0289
48.8443
48.5626
48.1943
47.7433
47.2098
46.5941
45.8972
45.1204
44.2652
43.3337
42.3284
41.2524
40.1097
38.9045
37.6421
36.3281
34.9691
33.572
32.1444
30.6943
29.2301
27.7602
26.2933
24.8377
23.4015
21.9925
20.6176
19.2839
48.4637
48.3828
48.1941
47.9064
47.5314
47.0734
46.5336
45.9126
45.2122
44.4344
43.5815
42.6563
41.6619
40.6023
39.4818
38.3053
37.0784
35.8071
34.4979
33.1576
31.7936
30.4134
29.0246
27.6349
26.2519
24.8828
23.5347
22.2139
20.9263
19.6777
47.8802
47.7977
47.6053
47.3127
46.9323
46.4693
45.925
45.3008
44.599
43.8223
42.9735
42.056
41.0735
40.0305
38.9318
37.7827
36.5889
35.3566
34.0923
32.8027
31.4947
30.1755
28.8519
27.5311
26.2196
24.9239
23.65
22.4034
21.189
20.0114
47.3641
47.2799
47.0841
46.7872
46.4024
45.9354
45.3882
44.7623
44.0607
43.2863
42.4427
41.5336
40.5633
39.5364
38.4582
37.3343
36.1705
34.9731
33.7484
32.5029
31.2434
29.9764
28.7084
27.4457
26.1943
24.9599
23.7478
22.5627
21.4088
20.2899
46.9226
46.8366
46.6369
46.3357
45.9472
45.4776
44.9286
44.3022
43.6016
42.8304
41.9924
41.0916
40.1327
39.1207
38.061
36.9594
35.8218
34.6545
33.4636
32.2557
31.0369
29.8136
28.5917
27.3772
26.1753
24.9912
23.8296
22.6946
21.5898
20.5186
46.5639
46.4751
46.2697
45.9631
45.5711
45.0992
44.549
43.9227
43.2238
42.4561
41.6235
40.7306
39.782
38.7831
37.7394
36.6567
35.5411
34.3987
33.2358
32.0584
30.8727
29.6846
28.4997
27.3235
26.161
25.0167
23.895
22.7995
21.7334
20.6995
46.2977
46.2038
45.9906
45.6789
45.2842
44.8106
44.2593
43.633
42.9355
42.1706
41.3427
40.4561
39.5159
38.5275
37.4964
36.4287
35.3303
34.2073
33.0658
31.9119
30.7515
29.5901
28.4333
27.286
26.1531
25.0387
23.9468
22.8808
21.8436
20.8377
46.1362
46.0201
45.7909
45.4751
45.0802
44.6066
44.0555
43.4303
42.7348
41.9729
41.149
40.2676
39.3337
38.3529
37.3309
36.2737
35.1872
34.0775
32.9508
31.8128
30.6695
29.5262
28.3883
27.2605
26.1474
25.0531
23.9811
22.9348
21.9168
20.9295
46.1432
45.9594
45.7017
45.3802
44.9835
44.5079
43.9557
43.3305
42.6361
41.8762
41.0549
40.1768
39.2469
38.2707
37.2539
36.2024
35.1224
34.0198
32.9008
31.7711
30.6364
29.5023
28.3738
27.2557
26.1525
25.068
24.0059
22.9692
21.9607
20.9824
-251.483
-225.778
-177.332
-84.9351
-93.2661
-96.5076
-52.9606
-72.4394
-86.9689
-45.4274
-62.0323
-74.1897
-33.0635
-44.9993
-54.439
-22.5219
-31.5486
-38.9691
-14.8018
-21.7627
-27.5012
-8.74523
-14.1551
-18.6257
-3.85965
-8.14511
-11.7067
0.105807
-3.35447
-6.2489
3.36132
0.521405
-1.87137
6.06362
3.6979
1.68894
8.32638
6.32857
4.61821
10.2346
8.52619
7.05164
11.8536
10.3755
9.08958
13.2334
11.9406
10.8072
14.4138
13.2714
12.2625
15.4256
14.4064
13.4998
16.2944
15.3765
14.5548
17.0406
16.2066
15.4556
17.68
16.9156
16.2236
18.2271
17.5207
16.878
18.692
18.0337
17.4323
19.0848
18.4663
17.8992
19.4116
18.8257
18.2867
19.6795
19.1199
18.6036
19.8909
19.3517
18.8534
20.0519
19.5279
19.0428
20.1586
19.6449
19.1689
20.2202
19.7123
19.2406
-133.674
-154.301
-174.586
-190.969
-203.329
-206.752
-198.066
-180.348
-157.961
-134.187
-111.259
-90.5235
-72.5937
-57.5772
-45.2877
-35.3981
-27.536
-21.3394
-16.4838
-12.692
-9.7349
-7.42756
-5.62316
-4.20677
-3.08931
-2.20214
-1.49249
-0.919771
-0.452842
-0.063313
-111.752
-144.125
-167.444
-183.611
-193.281
-193.333
-183.268
-166.319
-145.801
-124.299
-103.638
-84.9221
-68.6587
-54.9416
-43.6196
-34.4203
-27.0302
-21.1415
-16.4753
-12.7906
-9.88595
-7.59628
-5.78884
-4.35814
-3.22113
-2.31282
-1.58248
-0.990451
-0.505767
-0.101545
-106.325
-132.266
-151.69
-164.378
-169.804
-167.897
-159.131
-145.366
-128.65
-110.896
-93.5804
-77.6471
-63.5768
-51.5166
-41.4026
-33.0557
-26.2483
-20.7443
-16.322
-12.7837
-9.9601
-7.70923
-5.9144
-4.48097
-3.33297
-2.40985
-1.66345
-1.05553
-0.555554
-0.138154
-88.9275
-107.071
-122.92
-133.869
-138.663
-137.754
-131.927
-122.164
-109.766
-96.1385
-82.4543
-69.5242
-57.8205
-47.5548
-38.7584
-31.3523
-25.1991
-20.1378
-16.0062
-12.652
-9.9396
-7.75123
-5.98746
-4.56551
-3.41736
-2.48762
-1.73135
-1.11216
-0.600388
-0.172316
-66.1454
-79.8491
-93.3239
-103.598
-108.982
-109.699
-106.535
-100.231
-91.6436
-81.736
-71.3858
-61.2654
-51.821
-43.3049
-35.8225
-29.3776
-23.911
-19.3292
-15.5245
-12.3875
-9.8149
-7.71303
-5.99983
-4.6049
-3.46879
-2.54188
-1.78302
-1.15816
-0.638936
-0.203544
-47.9809
-58.454
-69.4069
-78.4042
-83.901
-85.8585
-84.7502
-81.1221
-75.5378
-68.6366
-61.0579
-53.3432
-45.8929
-38.9693
-32.7202
-27.206
-22.4259
-18.3399
-14.8861
-11.9922
-9.5842
-7.59096
-5.94723
-4.59493
-3.48348
-2.56945
-1.81595
-1.19173
-0.670123
-0.231465
-34.3896
-42.4074
-51.0827
-58.6661
-63.9274
-66.6336
-66.9363
-65.188
-61.7785
-57.1425
-51.7372
-45.9819
-40.2153
-34.6842
-29.5507
-24.9068
-20.79
-17.1994
-14.1084
-11.4754
-9.25157
-7.38587
-5.82866
-4.53371
-3.45922
-2.56819
-1.82828
-1.2114
-0.692968
-0.255685
-24.0221
-30.3381
-37.282
-43.633
-48.4415
-51.4188
-52.5573
-52.0535
-50.1691
-47.1971
-43.4563
-39.2601
-34.8824
-30.5402
-26.3917
-22.5414
-19.0492
-15.9399
-13.213
-10.8507
-8.82486
-7.1017
-5.64556
-4.42116
-3.39517
-2.53696
-1.81887
-1.21622
-0.706835
-0.27589
-16.0521
-21.1797
-26.8317
-32.149
-36.417
-39.3783
-40.965
-41.2622
-40.4295
-38.6597
-36.1719
-33.195
-29.943
-26.5978
-23.3025
-20.1618
-17.2454
-14.5934
-12.223
-10.1339
-8.31419
-6.74449
-5.40109
-4.25859
-3.2915
-2.47529
-1.787
-1.20548
-0.711144
-0.291759
-9.8242
-14.0802
-18.7561
-23.2363
-26.9885
-29.7965
-31.5879
-32.3801
-32.2592
-31.3475
-29.7935
-27.7606
-25.411
-22.8916
-20.3255
-17.8096
-15.415
-13.1896
-11.161
-9.34139
-7.731
-6.3217
-5.09983
-4.04853
-3.14936
-2.38352
-1.73256
-1.17884
-0.705535
-0.302969
-4.86548
-8.46169
-12.3929
-16.2067
-19.5011
-22.1087
-23.9608
-25.0429
-25.395
-25.0905
-24.2269
-22.9185
-21.2854
-19.4424
-17.4915
-15.5182
-13.5897
-11.7555
-10.049
-8.49016
-7.08766
-5.842
-4.74755
-3.79461
-2.97089
-2.26277
-1.65603
-1.13645
-0.689984
-0.309385
-0.857158
-3.94227
-7.29646
-10.5794
-13.4838
-15.8809
-17.7132
-18.953
-19.6129
-19.7334
-19.3765
-18.6201
-17.5512
-16.2572
-14.8203
-13.3129
-11.7952
-10.315
-8.90749
-7.59664
-6.39687
-5.31477
-4.35089
-3.50131
-2.75897
-2.11476
-1.55834
-1.07872
-0.664551
-0.310894
2.42383
-0.257443
-3.15714
-6.01424
-8.59033
-10.7866
-12.5578
-13.8718
-14.7264
-15.1412
-15.1534
-14.8149
-14.187
-13.3352
-12.3239
-11.2123
-10.0529
-8.88897
-7.75505
-6.67667
-5.67139
-4.7499
-3.91723
-3.17395
-2.51726
-1.94193
-1.44104
-1.00656
-0.629724
-0.307651
5.13772
2.78063
0.243974
-2.2686
-4.56954
-6.58245
-8.27378
-9.6102
-10.5826
-11.1978
-11.4767
-11.4523
-11.1672
-10.6691
-10.0073
-9.22934
-8.37907
-7.49476
-6.60828
-5.74493
-4.92357
-4.15732
-3.45425
-2.81825
-2.24987
-1.74707
-1.30589
-0.920962
-0.585908
-0.299758
7.40214
5.30868
3.06556
0.833972
-1.23689
-3.08947
-4.69097
-6.01776
-7.05643
-7.80558
-8.27522
-8.4856
-8.46523
-8.24819
-7.87141
-7.37227
-6.78654
-6.14688
-5.48178
-4.81497
-4.16533
-3.54705
-2.97006
-2.44055
-1.9616
-1.5337
-1.15536
-0.823557
-0.534065
-0.287547
9.30473
7.42801
5.42481
3.42445
1.54731
-0.160431
-1.67531
-2.97498
-4.04549
-4.88141
-5.4859
-5.87039
-6.0533
-6.05837
-5.91273
-5.64505
-5.28396
-4.8566
-4.38768
-3.89866
-3.4075
-2.9285
-2.47251
-2.04716
-1.65731
-1.30543
-0.992009
-0.716008
-0.475124
-0.27142
10.9125
9.21563
7.41037
5.60178
3.88811
2.30657
0.875035
-0.387525
-1.46732
-2.35687
-3.05518
-3.56772
-3.9058
-4.08545
-4.12613
-4.0494
-3.87767
-3.63306
-3.33643
-3.00665
-2.66018
-2.31075
-1.96939
-1.64453
-1.34217
-1.0662
-0.818702
-0.600246
-0.410204
-0.251828
12.2766
10.7301
9.08939
7.44085
5.86568
4.39425
3.04042
1.81972
0.745188
-0.174824
-0.93691
-1.54267
-1.99842
-2.31453
-2.50459
-2.58446
-2.57137
-2.48293
-2.33641
-2.14801
-1.93234
-1.70217
-1.46819
-1.23907
-1.02146
-0.820227
-0.638619
-0.478527
-0.340717
-0.229376
13.4375
12.0176
10.5145
9.00037
7.54304
6.16757
4.8848
3.70735
2.64712
1.71262
0.908553
0.235792
-0.308548
-0.73076
-1.04
-1.24766
-1.36667
-1.41084
-1.39417
-1.33024
-1.23179
-1.11029
-0.975807
-0.836822
-0.700276
-0.571612
-0.454919
-0.353103
-0.268077
-0.204751
14.4272
13.1142
11.7269
10.326
8.96911
7.67702
6.45827
5.32315
4.28235
3.34411
2.51374
1.79361
1.18313
0.678921
0.275111
-0.0362187
-0.26458
-0.420564
-0.515319
-0.560056
-0.565614
-0.542126
-0.498768
-0.443617
-0.383576
-0.324383
-0.270677
-0.22612
-0.193558
-0.178491
15.2703
14.0479
12.7581
11.4529
10.1816
8.96191
7.8005
6.70574
5.68713
4.75238
3.90699
3.15418
2.49488
1.92773
1.44929
1.05428
0.735897
0.486184
0.29642
0.157522
0.0604082
-0.00368682
-0.0429758
-0.0649481
-0.076268
-0.0827361
-0.089312
-0.100194
-0.118943
-0.151439
15.9879
14.8423
13.6348
12.4105
11.2123
10.0551
8.94443
7.88697
6.89122
5.96429
5.1116
4.33682
3.64182
3.02666
2.48963
2.02745
1.63541
1.30767
1.03755
0.817786
0.640892
0.499392
0.386054
0.29406
0.217117
0.149523
0.0861763
0.0225231
-0.0455411
-0.124184
16.5954
15.5148
14.3765
13.2204
12.0841
10.9808
9.91456
8.89112
7.91791
7.0014
6.14679
5.35795
4.63731
3.98589
3.40321
2.88747
2.43559
2.0434
1.70586
1.41727
1.17154
0.962365
0.783459
0.628696
0.492229
0.368567
0.252594
0.139548
0.0249395
-0.097531
17.1068
16.0807
15.0005
13.9015
12.8176
11.7601
10.7323
9.73914
8.78701
7.88186
7.02864
6.23123
5.49242
4.81379
4.19579
3.63766
3.13754
2.69258
2.29907
1.9526
1.64824
1.38073
1.14465
0.934545
0.74504
0.57091
0.407117
0.248797
0.0911887
-0.0720874
17.5313
16.5506
15.5184
14.4668
13.4264
12.4075
11.4126
10.4458
9.51285
8.61915
7.76938
6.96734
6.21596
5.51726
4.87224
4.28095
3.74242
3.25482
2.81548
2.42102
2.06749
1.75054
1.4655
1.20752
0.971702
0.753106
0.546828
0.347981
0.15163
-0.0485928
17.8781
16.9344
15.9414
14.9283
13.9236
12.9363
11.9687
11.0243
10.1079
9.22483
8.3793
7.57507
6.81514
6.10174
5.43629
4.81938
4.25074
3.72926
3.25308
2.81965
2.42581
2.06793
1.742
1.44371
1.16856
0.911929
0.669054
0.435077
0.204958
-0.0276406
18.1517
17.2372
16.275
15.2924
14.3158
13.3538
12.4082
11.482
10.5796
9.7058
8.86469
8.05989
7.29438
6.57056
5.8901
5.25396
4.66236
4.11474
3.60985
3.14576
2.71993
2.32932
1.97043
1.63943
1.33216
1.04427
0.771151
0.508009
0.24975
-0.0098876
18.3584
17.4657
16.5264
15.5664
14.6108
13.6677
12.7387
11.8262
10.9345
10.068
9.23052
8.42572
7.65653
6.92541
6.23421
5.58415
4.97575
4.40888
3.88269
3.39571
2.94586
2.53052
2.14662
1.79066
1.45878
1.14683
0.850375
0.564675
0.284634
0.00409932
18.4967
17.6185
16.6946
15.7499
14.8087
13.8785
12.9608
12.0582
11.1741
10.3129
9.47836
8.67393
7.9026
7.16685
6.46866
5.80941
5.18984
4.61005
4.06951
3.56705
3.10088
2.66871
2.2677
1.89462
1.54581
1.21729
0.904736
0.603504
0.308568
0.014044
18.573
17.7006
16.7839
15.8468
14.9124
13.9882
13.0757
12.1771
11.2961
10.4371
9.60359
8.79902
8.02631
7.28798
6.58603
5.92193
5.29653
4.71007
4.16216
3.65177
3.1773
2.73658
2.32695
1.94527
1.588
1.25123
0.930707
0.621866
0.319815
0.0192419
)
;

boundaryField
{
    inlet
    {
        type            zeroGradient;
    }
    outlet
    {
        type            fixedValue;
        value           uniform 0;
    }
    flap
    {
        type            zeroGradient;
    }
    upperWall
    {
        type            zeroGradient;
    }
    lowerWall
    {
        type            zeroGradient;
    }
    frontAndBack
    {
        type            empty;
    }
}


// ************************************************************************* //
