/*--------------------------------*- C++ -*----------------------------------*\
| =========                 |                                                 |
| \\      /  F ield         | OpenFOAM: The Open Source CFD Toolbox           |
|  \\    /   O peration     | Version:  2012                                  |
|   \\  /    A nd           | Website:  www.openfoam.com                      |
|    \\/     M anipulation  |                                                 |
\*---------------------------------------------------------------------------*/
FoamFile
{
    version     2.0;
    format      ascii;
    class       volVectorField;
    location    "0.2";
    object      U;
}
// * * * * * * * * * * * * * * * * * * * * * * * * * * * * * * * * * * * * * //

dimensions      [0 1 -1 0 0 0 0];


internalField   nonuniform List<vector> 
2790
(
(9.94494 7.84268e-24 0.0199416)
(9.87972 0 0.0283529)
(9.78434 0 0.033952)
(9.66556 0 0.0394431)
(9.5293 0 0.0448028)
(9.37725 0 0.049877)
(9.20979 1.46884e-22 0.0547279)
(9.0275 -3.04799e-22 0.0595072)
(8.83105 1.28073e-21 0.0643934)
(8.62075 -1.31087e-21 0.069578)
(8.39642 0 0.075257)
(8.15737 -2.92892e-21 0.0816196)
(7.90254 6.08321e-21 0.0888374)
(7.63052 -3.16226e-21 0.0970593)
(7.3397 0 0.10641)
(7.02835 9.82305e-23 0.116989)
(6.69474 -7.46627e-21 0.128871)
(6.33725 8.13904e-21 0.142101)
(5.95452 2.19427e-22 0.156693)
(5.54557 -9.02932e-21 0.172616)
(5.10996 4.90706e-20 0.189796)
(4.64794 -5.248e-20 0.208095)
(4.16062 9.07175e-20 0.227318)
(3.65006 0 0.247211)
(3.11931 0 0.267477)
(2.5724 -2.31806e-19 0.287786)
(2.01395 -5.09355e-19 0.307786)
(1.44893 5.51986e-19 0.327041)
(0.871221 3.04499e-19 0.345723)
(0.367211 -2.6821e-18 0.356649)
(9.99921 -7.82748e-24 0.0391395)
(9.98406 -3.17535e-23 0.0595218)
(9.94051 3.22141e-23 0.0752472)
(9.87009 -6.5939e-23 0.0917484)
(9.77639 6.76515e-23 0.108922)
(9.66057 1.39252e-22 0.126154)
(9.52297 4.3603e-22 0.143286)
(9.36436 -1.48947e-21 0.160423)
(9.18582 6.13362e-22 0.177804)
(8.98828 0 0.195777)
(8.77227 0 0.214769)
(8.53781 0 0.235238)
(8.28446 0 0.257625)
(8.01137 6.17001e-21 0.282327)
(7.71735 6.58749e-21 0.309666)
(7.40097 8.83444e-23 0.339881)
(7.06066 1.44819e-20 0.373106)
(6.6949 1.94768e-21 0.409356)
(6.30226 -5.11746e-20 0.448505)
(5.88165 5.19117e-20 0.490264)
(5.4324 -3.71975e-20 0.53416)
(4.95451 3.98337e-20 0.579522)
(4.44875 -1.70871e-19 0.625481)
(3.91686 1.83832e-19 0.671007)
(3.36158 -6.04758e-19 0.714972)
(2.78661 1.07316e-18 0.756277)
(2.19628 0 0.794026)
(1.59549 -5.1281e-19 0.827688)
(0.977182 -5.64934e-22 0.858504)
(0.421094 3.09286e-19 0.870934)
(9.99628 3.89974e-24 0.0408254)
(9.97808 2.76193e-23 0.0713998)
(9.9363 -3.2111e-23 0.0990261)
(9.87011 3.27193e-23 0.12831)
(9.78149 -3.38416e-23 0.159194)
(9.67134 -1.38389e-22 0.190722)
(9.53992 1.43625e-22 0.222372)
(9.38782 1.03217e-21 0.254057)
(9.21595 3.08278e-22 0.285996)
(9.02515 -3.14531e-22 0.31866)
(8.81591 -2.63906e-21 0.352707)
(8.58827 0 0.388892)
(8.34184 -1.82535e-22 0.427986)
(8.07581 -5.87341e-21 0.470707)
(7.78902 0 0.517672)
(7.48001 1.33347e-20 0.569367)
(7.14719 -1.41284e-20 0.62611)
(6.78886 0 0.688021)
(6.40341 9.55492e-20 0.754984)
(5.98942 -9.97088e-20 0.826599)
(5.54581 0 0.902148)
(5.07204 -3.07525e-19 0.980549)
(4.56829 7.31526e-19 1.06033)
(4.03563 1.07901e-20 1.13968)
(3.47617 -1.50148e-18 1.21647)
(2.8931 2.43632e-18 1.28849)
(2.29056 -1.30701e-18 1.35371)
(1.67436 -2.88349e-18 1.41056)
(1.03858 4.41681e-18 1.45999)
(0.456761 -2.87085e-19 1.47971)
(9.99471 0 0.0463097)
(9.9743 -3.15287e-23 0.088216)
(9.93232 1.59821e-23 0.128446)
(9.86741 4.90554e-23 0.170193)
(9.78064 -9.94498e-23 0.213738)
(9.67279 8.35114e-25 0.258219)
(9.54425 4.93496e-22 0.302976)
(9.39563 -1.74733e-21 0.347836)
(9.22778 1.20406e-21 0.393058)
(9.04148 -2.49794e-21 0.439257)
(8.8372 1.17231e-23 0.487317)
(8.61497 -5.41023e-21 0.538272)
(8.37439 7.16194e-22 0.593196)
(8.11465 -7.32287e-22 0.653112)
(7.83458 -6.28396e-21 0.718923)
(7.53272 6.56618e-21 0.791365)
(7.20738 1.42195e-20 0.870965)
(6.85676 -2.85143e-20 0.957994)
(6.47904 6.0653e-20 1.05241)
(6.07249 -1.30503e-19 1.15381)
(5.63562 1.34932e-19 1.26133)
(5.16734 0 1.37361)
(4.66718 0 1.4887)
(4.13549 9.96081e-19 1.60407)
(3.5737 -8.77623e-19 1.71663)
(2.98451 0 1.82295)
(2.37199 1.64638e-18 1.91953)
(1.74322 -2.21482e-18 2.00314)
(1.09428 -4.36715e-18 2.07309)
(0.490773 3.96878e-18 2.09882)
(9.99398 -3.8729e-24 0.0532259)
(9.9724 -2.73741e-23 0.104857)
(9.93033 1.59691e-23 0.15621)
(9.86664 -1.45631e-22 0.209521)
(9.78186 1.99445e-22 0.265166)
(9.67657 -1.35975e-22 0.322286)
(9.55117 6.70956e-23 0.380013)
(9.4063 1.15445e-21 0.438004)
(9.24279 -1.34345e-21 0.496485)
(9.06139 2.62546e-21 0.556174)
(8.86255 2.56721e-21 0.618155)
(8.6463 5.34122e-21 0.683727)
(8.41224 -1.40307e-21 0.754263)
(8.15958 -7.17346e-21 0.831092)
(7.88711 -2.99294e-21 0.915417)
(7.59334 2.52292e-20 1.00825)
(7.2765 0 1.11037)
(6.93463 0 1.22224)
(6.56566 -5.89911e-20 1.34397)
(6.16751 -1.2526e-19 1.47524)
(5.73821 2.58793e-19 1.61514)
(5.27603 -1.37189e-19 1.76213)
(4.77976 1.45415e-19 1.91386)
(4.2489 -1.98512e-21 2.06711)
(3.68406 0 2.21777)
(3.08735 0 2.36092)
(2.46272 -3.8417e-19 2.49114)
(1.8184 3.31565e-18 2.60283)
(1.15297 -6.94659e-18 2.69248)
(0.525846 4.16333e-18 2.71933)
(9.99368 3.07514e-23 0.060768)
(9.97165 2.34325e-23 0.121512)
(9.92994 7.89349e-24 0.183454)
(9.86776 1.61377e-22 0.248146)
(9.78538 -6.57674e-23 0.315721)
(9.68314 3.3466e-23 0.385193)
(9.56146 -1.10496e-21 0.455502)
(9.42098 9.90889e-22 0.526167)
(9.26254 -2.40949e-24 0.597406)
(9.08688 2.56968e-21 0.670057)
(8.89444 0 0.745413)
(8.68526 -5.86036e-21 0.825043)
(8.45895 6.71883e-22 0.910623)
(8.21472 1.13538e-20 1.0038)
(7.95136 0 1.10608)
(7.66733 -4.92072e-20 1.21878)
(7.36076 5.11386e-20 1.34297)
(7.02952 -1.08016e-19 1.47938)
(6.67126 1.11819e-19 1.62836)
(6.28349 0 1.78975)
(5.86365 -1.25349e-19 1.96275)
(5.40925 2.03034e-21 2.14574)
(4.91811 -2.22705e-21 2.33612)
(4.38863 4.43837e-19 2.53004)
(3.82027 -7.69614e-19 2.72231)
(3.21417 -1.33435e-18 2.90627)
(2.57373 2.83446e-18 3.07404)
(1.9079 1.54871e-18 3.21683)
(1.21753 -1.87445e-19 3.32738)
(0.561807 -3.73065e-18 3.35196)
(9.99361 -3.07307e-23 0.0685366)
(9.97166 0 0.138055)
(9.93074 0 0.210055)
(9.87039 3.20852e-23 0.285669)
(9.79076 2.27394e-22 0.364717)
(9.69207 0 0.446048)
(9.57469 -5.41095e-22 0.528431)
(9.4393 -1.26699e-21 0.611266)
(9.28673 -2.08736e-21 0.694761)
(9.11773 -2.46929e-21 0.77986)
(8.93273 1.55772e-22 0.868054)
(8.73179 -5.20222e-21 0.961175)
(8.51457 0 1.06119)
(8.28027 0 1.17007)
(8.02771 0 1.28965)
(7.75531 1.19315e-20 1.42158)
(7.46113 -3.77385e-20 1.56726)
(7.14286 -2.56106e-22 1.72777)
(6.79786 -5.46662e-20 1.90378)
(6.4232 0 2.09545)
(6.01564 2.39407e-19 2.30226)
(5.57181 -1.20276e-19 2.52274)
(5.0883 3.94866e-19 2.75421)
(4.56205 -4.07351e-19 2.9924)
(3.99082 3.11937e-21 3.23109)
(3.37408 0 3.46178)
(2.71388 0 3.67366)
(2.01907 0 3.85386)
(1.29162 0 3.99035)
(0.59918 1.05283e-19 4.01314)
(9.9937 0 0.076296)
(9.97217 5.373e-23 0.154284)
(9.93241 7.78393e-24 0.235824)
(9.87421 -1.26343e-22 0.321845)
(9.79771 -2.5872e-22 0.411882)
(9.70304 5.25033e-22 0.504571)
(9.59054 1.08171e-21 0.598508)
(9.46091 -1.10214e-21 0.692971)
(9.31498 2.28404e-21 0.788154)
(9.15352 0 0.885096)
(8.97697 -1.52654e-22 0.985482)
(8.78544 2.07942e-20 1.09139)
(8.57862 -1.94887e-21 1.2051)
(8.35577 2.26467e-20 1.32888)
(8.11574 2.77133e-20 1.46492)
(7.85696 -5.71253e-21 1.61522)
(7.57743 0 1.78158)
(7.27472 2.51812e-20 1.96548)
(6.94594 7.89679e-20 2.16806)
(6.5877 -5.32949e-20 2.38996)
(6.1961 0 2.63112)
(5.76672 -1.15463e-19 2.89053)
(5.29475 -2.46487e-19 3.16578)
(4.7752 -2.09589e-21 3.45255)
(4.20346 6.76278e-19 3.7439)
(3.57629 -5.60818e-19 4.0296)
(2.8931 0 4.29561)
(2.16134 1.28958e-18 4.52399)
(1.38168 -1.38342e-18 4.69647)
(0.640184 1.17395e-20 4.72281)
(9.99388 3.02126e-23 0.0838963)
(9.97305 -6.51943e-23 0.170029)
(9.93479 -3.90052e-24 0.260617)
(9.87909 1.3377e-22 0.35652)
(9.8061 0 0.457017)
(9.7159 -5.22339e-22 0.560516)
(9.60884 9.92939e-22 0.665422)
(9.48561 1.29911e-21 0.770895)
(9.34707 1.9476e-21 0.877113)
(9.19397 1.42782e-22 0.985205)
(9.02684 -4.71978e-21 1.09703)
(8.84581 -9.52082e-21 1.21492)
(8.65065 -3.12762e-22 1.34143)
(8.44069 -4.43473e-20 1.47914)
(8.21488 2.34388e-21 1.6306)
(7.97169 0 1.79819)
(7.70913 0 1.98413)
(7.42473 0 2.19041)
(7.11541 0 2.41872)
(6.77741 1.01064e-19 2.67036)
(6.4062 0 2.94604)
(5.99632 2.1937e-19 3.24553)
(5.54138 0 3.56721)
(5.0341 1.20053e-19 3.9073)
(4.46668 0 4.25887)
(3.83186 -5.20121e-19 4.61054)
(3.12441 5.74557e-19 4.94514)
(2.34827 0 5.2386)
(1.49869 6.48564e-19 5.46412)
(0.689724 -7.40995e-19 5.50605)
(9.99413 -3.0193e-23 0.0912339)
(9.9742 0 0.185146)
(9.93773 0 0.284287)
(9.88482 2.47885e-22 0.389513)
(9.81569 0 0.499889)
(9.73039 -5.12194e-22 0.613588)
(9.62928 -1.05357e-21 0.728821)
(9.51304 0 0.84463)
(9.38256 -2.20964e-21 0.961168)
(9.23863 4.6321e-21 1.07964)
(9.08179 -8.97492e-23 1.20208)
(8.91229 7.52493e-23 1.33103)
(8.72997 -7.62029e-23 1.46931)
(8.5343 2.04143e-20 1.61984)
(8.32433 -2.1053e-20 1.78547)
(8.09866 0 1.96901)
(7.85541 4.38958e-20 2.17311)
(7.59214 0 2.40031)
(7.30573 0 2.65301)
(6.9922 -9.81696e-20 2.93331)
(6.64654 -9.82573e-20 3.24297)
(6.26239 -1.04245e-19 3.583)
(5.83179 -2.1032e-19 3.9532)
(5.34493 2.17962e-19 4.35127)
(4.79017 -3.38548e-19 4.77149)
(4.15465 4.95998e-19 5.20267)
(3.42567 -2.81789e-19 5.6256)
(2.60003 1.57091e-20 6.00963)
(1.66082 -1.77941e-20 6.31609)
(0.757123 3.92438e-20 6.39563)
(9.99444 6.14298e-23 0.0982341)
(9.97557 -5.65457e-24 0.199518)
(9.94111 3.79605e-24 0.306703)
(9.89128 -2.47166e-22 0.420669)
(9.82631 3.13573e-23 0.540305)
(9.74629 4.78172e-22 0.66355)
(9.65156 -1.09464e-21 0.788421)
(9.54284 6.56395e-23 0.913834)
(9.42103 1.87652e-21 1.03991)
(9.28695 -3.89734e-21 1.16793)
(9.14123 -2.23961e-22 1.30006)
(8.98418 8.66504e-21 1.43904)
(8.81579 5.93687e-22 1.58795)
(8.63567 -3.09815e-22 1.74999)
(8.44306 3.03184e-22 1.92834)
(8.23675 6.63784e-22 2.12619)
(8.01506 -4.37058e-20 2.34666)
(7.77574 0 2.59289)
(7.51578 0 2.86798)
(7.23124 9.021e-20 3.17507)
(6.9169 3.10282e-21 3.51716)
(6.56582 4.81582e-20 3.897)
(6.16881 1.95755e-19 4.31654)
(5.71368 4.99796e-22 4.77618)
(5.18458 -5.0733e-20 5.27321)
(4.5617 -2.68154e-20 5.79921)
(3.82136 3.40292e-20 6.33583)
(2.94702 -1.55917e-20 6.84765)
(1.8979 0 7.28105)
(0.859215 3.19341e-20 7.43914)
(9.99478 -5.95255e-23 0.104839)
(9.9771 0 0.213047)
(9.94487 0 0.327742)
(9.89836 0 0.449845)
(9.83785 0 0.578085)
(9.76344 -5.61656e-22 0.710184)
(9.67551 2.1016e-21 0.843959)
(9.57478 0 0.978199)
(9.46216 -2.43136e-23 1.11299)
(9.33855 4.03561e-21 1.24965)
(9.20463 3.36474e-22 1.39046)
(9.06084 -8.01065e-21 1.53836)
(8.9073 -1.15564e-21 1.69663)
(8.74385 2.40127e-21 1.86872)
(8.56994 -2.17465e-20 2.05813)
(8.38465 0 2.26838)
(8.1866 -4.03245e-20 2.50305)
(7.97388 -4.1108e-20 2.76584)
(7.74384 -4.71767e-20 3.06063)
(7.49285 -8.24646e-20 3.39161)
(7.21594 1.75401e-19 3.76327)
(6.90617 -1.11533e-20 4.1804)
(6.5538 1.81951e-20 4.64788)
(6.14507 3.27172e-20 5.17014)
(5.66049 -2.28266e-20 5.74989)
(5.07286 9.13374e-22 6.38544)
(4.34421 -9.32782e-20 7.06544)
(3.43576 1.89511e-19 7.7571)
(2.26178 -1.00861e-19 8.39458)
(1.02918 1.80308e-19 8.71253)
(9.99516 0 0.111005)
(9.97877 9.26899e-25 0.225652)
(9.94893 -1.2356e-22 0.347299)
(9.90595 3.75802e-24 0.476907)
(9.85013 0 0.613068)
(9.78163 4.65581e-22 0.753293)
(9.70083 2.08281e-23 0.895202)
(9.60848 1.90252e-21 1.03745)
(9.50552 3.65599e-22 1.18007)
(9.39288 -4.53853e-21 1.32441)
(9.27134 6.35052e-23 1.47285)
(9.14148 -1.11436e-21 1.62846)
(9.00359 3.40105e-21 1.79471)
(8.85774 -2.05931e-20 1.97527)
(8.70366 1.90558e-20 2.17387)
(8.54079 4.28107e-20 2.39434)
(8.36818 6.00138e-21 2.64066)
(8.18441 6.95796e-20 2.91702)
(7.98744 6.11453e-20 3.22804)
(7.77434 3.92073e-20 3.57892)
(7.54089 -6.32155e-20 3.97564)
(7.28097 -8.03153e-20 4.42523)
(6.9855 -4.33115e-20 4.93596)
(6.64082 -8.3054e-20 5.51741)
(6.22596 3.88498e-20 6.18021)
(5.70844 2.07923e-20 6.93458)
(5.0357 0 7.78639)
(4.13759 1.50941e-19 8.72405)
(2.84688 -1.59431e-19 9.69524)
(1.33756 1.1557e-20 10.3599)
(9.99556 0 0.116696)
(9.98053 4.59123e-25 0.237272)
(9.95321 1.18224e-22 0.365292)
(9.91392 2.37295e-22 0.501757)
(9.863 0 0.645134)
(9.80063 0 0.792733)
(9.72723 -1.05581e-21 0.941979)
(9.64356 3.85846e-23 1.09139)
(9.55061 2.30096e-22 1.24094)
(9.44935 2.6389e-22 1.39196)
(9.34065 3.74122e-21 1.54692)
(9.22524 1.08493e-21 1.70898)
(9.10361 -1.09334e-21 1.88175)
(8.97607 3.69302e-22 2.06906)
(8.8427 0 2.27483)
(8.70335 -2.81441e-20 2.50312)
(8.55759 -2.7084e-20 2.75819)
(8.40466 -7.58522e-20 3.04464)
(8.24336 9.47328e-20 3.36765)
(8.0718 -1.9135e-19 3.73327)
(7.88716 0 4.14878)
(7.68507 7.79272e-20 4.62326)
(7.45871 -1.78352e-21 5.16826)
(7.19712 2.18762e-19 5.79887)
(6.8822 -4.104e-20 6.53504)
(6.48297 -2.69646e-19 7.40343)
(5.94126 2.53154e-19 8.4395)
(5.15944 -2.50515e-19 9.68625)
(3.84221 1.13459e-19 11.1913)
(1.95667 -4.29666e-21 12.711)
(9.99598 -5.75503e-23 0.121887)
(9.98238 -1.81869e-24 0.247856)
(9.95768 -1.12755e-22 0.38165)
(9.92223 -2.38606e-22 0.524301)
(9.87636 -4.73122e-22 0.674156)
(9.82031 -4.77975e-22 0.828338)
(9.75451 9.67306e-22 0.984083)
(9.67976 -1.98515e-21 1.13977)
(9.59707 -1.76481e-21 1.29528)
(9.50747 -7.64338e-22 1.45195)
(9.41193 -2.54888e-21 1.61226)
(9.31132 -1.04645e-21 1.77945)
(9.20634 -6.31282e-21 1.95722)
(9.09758 1.53683e-20 2.14948)
(8.98549 0 2.36028)
(8.87036 0 2.59381)
(8.75237 1.057e-21 2.85448)
(8.63153 7.21276e-20 3.14715)
(8.50765 -3.67914e-20 3.47733)
(8.38022 1.08773e-19 3.85157)
(8.24831 0 4.27802)
(8.11021 -6.81771e-20 4.76712)
(7.96299 1.3016e-19 5.33285)
(7.80154 -1.32667e-19 5.99454)
(7.61667 0 6.78016)
(7.39151 0 7.73218)
(7.08923 -2.76521e-21 8.9201)
(6.6412 1.41578e-19 10.4698)
(5.67735 -2.03222e-19 12.6875)
(3.37283 3.12901e-20 16.6526)
(-0.197203 -3.05594e-19 0.190176)
(-0.616153 8.47189e-19 0.196242)
(-1.04528 -1.05889e-18 0.190696)
(-1.46113 0 0.174408)
(-1.83903 -2.2899e-19 0.146175)
(-2.15584 2.20754e-19 0.10869)
(-2.37592 -1.02784e-19 0.0635736)
(-2.48083 0 0.00929389)
(-2.46393 0 -0.050192)
(-2.29449 0 -0.111003)
(-1.98654 -2.71214e-22 -0.1717)
(-1.51839 2.77632e-22 -0.223814)
(-0.933374 0 -0.262613)
(-0.24369 2.62352e-21 -0.28651)
(0.494112 -1.3158e-21 -0.295075)
(1.26828 0 -0.291731)
(2.04654 5.8632e-22 -0.279347)
(2.80598 5.81851e-22 -0.260604)
(3.52941 -1.9808e-22 -0.237889)
(4.2052 1.06075e-22 -0.213344)
(4.82657 0 -0.187982)
(5.38944 -2.1517e-23 -0.163134)
(5.891 2.92721e-23 -0.139946)
(6.332 -4.6126e-24 -0.118855)
(6.71672 4.1031e-24 -0.0999266)
(7.05031 -1.36865e-24 -0.0831997)
(7.33721 0 -0.0686519)
(7.58149 0 -0.0561374)
(7.78727 -1.1642e-26 -0.0454773)
(7.99411 0 -0.0372768)
(-0.195813 5.84615e-19 0.595534)
(-0.625938 2.70996e-19 0.609058)
(-1.07396 0 0.592835)
(-1.50868 4.8108e-19 0.547165)
(-1.90258 8.93137e-19 0.468906)
(-2.22987 -4.47261e-19 0.360644)
(-2.45862 -3.13574e-19 0.226411)
(-2.5678 2.81107e-19 0.0663403)
(-2.54546 -1.80085e-19 -0.106942)
(-2.36128 7.5079e-20 -0.281898)
(-2.03005 -2.36426e-20 -0.451665)
(-1.53332 -3.39265e-20 -0.599153)
(-0.915661 0 -0.707407)
(-0.197432 0 -0.775982)
(0.567399 -1.01293e-21 -0.804569)
(1.36591 -1.5155e-21 -0.800884)
(2.16597 -6.0549e-23 -0.772452)
(2.94521 -1.06386e-21 -0.726228)
(3.68692 -4.31508e-22 -0.668398)
(4.38012 -2.17309e-22 -0.604254)
(5.01862 -8.45087e-23 -0.537499)
(5.59809 4.94842e-23 -0.471729)
(6.11606 8.50953e-24 -0.409701)
(6.57352 -1.01181e-23 -0.352528)
(6.97454 6.15888e-24 -0.300497)
(7.32396 0 -0.253811)
(7.62602 0 -0.212505)
(7.88462 -5.54633e-27 -0.176302)
(8.10346 1.68351e-26 -0.144815)
(8.32218 -3.4586e-26 -0.118512)
(-0.195226 4.19118e-18 1.03225)
(-0.650431 -2.62356e-19 1.04898)
(-1.13631 0 1.01686)
(-1.60643 7.52528e-21 0.935389)
(-2.03327 0 0.801947)
(-2.38829 6.13911e-19 0.615899)
(-2.64048 -1.21666e-18 0.382931)
(-2.76334 1.99083e-19 0.107805)
(-2.7383 -1.63877e-19 -0.190544)
(-2.53823 1.98786e-19 -0.494105)
(-2.17354 -8.11432e-20 -0.78612)
(-1.63614 9.27781e-20 -1.0345)
(-0.976892 -2.95979e-20 -1.21542)
(-0.218434 6.74802e-21 -1.3272)
(0.576312 -4.68448e-21 -1.37125)
(1.39799 -1.45434e-21 -1.36164)
(2.21392 0 -1.31102)
(3.00289 -5.02336e-23 -1.23103)
(3.74938 7.51976e-23 -1.13202)
(4.44355 8.08122e-23 -1.0227)
(5.08001 -1.49583e-23 -0.909777)
(5.65534 1.49331e-23 -0.798946)
(6.16811 1.68011e-23 -0.694252)
(6.62017 1.62089e-23 -0.597567)
(7.01591 1.88349e-25 -0.509593)
(7.36024 -2.0499e-24 -0.430705)
(7.65758 0 -0.360898)
(7.91199 0 -0.299664)
(8.12708 0 -0.246201)
(8.34261 3.43418e-26 -0.200029)
(-0.199537 0 1.52158)
(-0.696331 -3.73726e-18 1.53697)
(-1.24012 1.88536e-18 1.48666)
(-1.76628 1.34603e-18 1.36841)
(-2.24585 0 1.17447)
(-2.64542 -5.86367e-21 0.903044)
(-2.93074 -7.80781e-19 0.561214)
(-3.06961 8.66261e-19 0.158722)
(-3.03309 0 -0.282551)
(-2.79904 1.04438e-19 -0.731378)
(-2.37115 -1.55217e-19 -1.15767)
(-1.77274 -5.55945e-20 -1.50785)
(-1.04982 5.48942e-20 -1.75902)
(-0.234009 -2.50594e-21 -1.90608)
(0.601747 -3.64581e-21 -1.95591)
(1.45406 2.72041e-21 -1.93237)
(2.29018 -8.94932e-22 -1.85313)
(3.09077 1.58406e-21 -1.73445)
(3.84212 0 -1.5908)
(4.53599 8.30048e-23 -1.43406)
(5.16834 -8.02078e-23 -1.27367)
(5.737 -1.52619e-22 -1.11722)
(6.24182 -2.24966e-23 -0.969816)
(6.68561 -1.08215e-23 -0.834025)
(7.0732 7.16643e-24 -0.710895)
(7.40971 2.10362e-24 -0.600811)
(7.69982 2.48817e-26 -0.503547)
(7.94781 -2.44306e-26 -0.418249)
(8.15733 -2.1448e-26 -0.343663)
(8.36767 0 -0.278665)
(-0.214349 -4.10762e-18 2.08232)
(-0.773596 3.81307e-18 2.09149)
(-1.3969 1.79604e-18 2.02024)
(-1.99955 -3.42489e-18 1.86104)
(-2.55106 1.66153e-18 1.60082)
(-3.00999 -3.88698e-19 1.23163)
(-3.33069 8.05469e-19 0.761262)
(-3.47525 -4.58615e-19 0.207416)
(-3.40277 3.41146e-19 -0.404747)
(-3.10165 0 -1.02007)
(-2.5795 1.55973e-20 -1.5899)
(-1.89514 -4.9871e-20 -2.04146)
(-1.089 7.296e-20 -2.35558)
(-0.208846 -3.28537e-20 -2.52567)
(0.672336 1.56205e-20 -2.56955)
(1.55615 0 -2.52277)
(2.41132 -8.56267e-22 -2.40757)
(3.221 8.16484e-22 -2.24462)
(3.97391 0 -2.05224)
(4.66377 0 -1.84511)
(5.28819 -2.65988e-22 -1.63522)
(5.84645 1.02567e-22 -1.43196)
(6.33983 -9.74172e-24 -1.24136)
(6.77212 2.21154e-23 -1.06643)
(7.14861 -7.40063e-24 -0.908392)
(7.4747 3.57807e-25 -0.767521)
(7.75532 0 -0.643269)
(7.99498 0 -0.534381)
(8.19735 2.12536e-26 -0.439151)
(8.4009 0 -0.355915)
(-0.246003 0 2.73181)
(-0.888394 3.65656e-18 2.73589)
(-1.61299 -3.65886e-18 2.64045)
(-2.31301 -2.11013e-19 2.43227)
(-2.94732 -2.05603e-19 2.09058)
(-3.46658 7.88212e-19 1.60376)
(-3.81 -1.47197e-18 0.973335)
(-3.9274 1.12407e-18 0.226595)
(-3.77755 -3.37736e-19 -0.589681)
(-3.36466 0 -1.39382)
(-2.72065 0 -2.10704)
(-1.93046 0 -2.64946)
(-1.03253 -2.08944e-20 -3.01095)
(-0.0957071 3.59164e-20 -3.18578)
(0.826387 -1.49825e-20 -3.20999)
(1.73399 0 -3.1291)
(2.59985 -2.09556e-21 -2.96965)
(3.41013 -1.57324e-21 -2.75632)
(4.15647 0 -2.51084)
(4.83492 -7.83344e-23 -2.25052)
(5.44473 3.33608e-22 -1.98961)
(5.98678 -9.24646e-23 -1.73888)
(6.4638 -5.79556e-23 -1.50496)
(6.88043 -2.83352e-23 -1.29113)
(7.24231 7.43967e-25 -1.09871)
(7.55504 -7.32767e-25 -0.927749)
(7.82376 -5.74564e-26 -0.777297)
(8.0531 5.66564e-26 -0.64564)
(8.24674 1.18748e-27 -0.530592)
(8.44189 -1.10728e-25 -0.429959)
(-0.299603 1.8242e-18 3.48812)
(-1.04223 -1.73473e-18 3.48657)
(-1.88192 1.85412e-18 3.36232)
(-2.68462 -2.97849e-18 3.09285)
(-3.3979 1.75153e-18 2.64404)
(-3.95692 -2.91743e-19 1.99978)
(-4.28714 -9.72143e-20 1.16576)
(-4.32431 1.40769e-19 0.175067)
(-4.04272 2.11867e-20 -0.879502)
(-3.47821 0 -1.88134)
(-2.69885 1.57828e-20 -2.72327)
(-1.79748 0 -3.33726)
(-0.81549 1.13057e-20 -3.72027)
(0.155317 -1.5473e-20 -3.8773)
(1.1039 1.43852e-20 -3.86863)
(2.01899 4.84437e-21 -3.74309)
(2.87988 3.53297e-21 -3.53156)
(3.67626 -5.777e-22 -3.26248)
(4.40291 7.72015e-22 -2.96037)
(5.05846 5.01025e-22 -2.64511)
(5.64389 0 -2.33268)
(6.16165 8.98253e-23 -2.03463)
(6.61573 6.99736e-23 -1.75797)
(7.01136 -6.70802e-24 -1.50615)
(7.35435 0 -1.28042)
(7.65033 0 -1.08052)
(7.90449 1.4806e-24 -0.90502)
(8.12145 -6.14852e-26 -0.751696)
(8.30475 -3.05452e-27 -0.617858)
(8.48998 9.51151e-27 -0.500779)
(-0.369637 1.84854e-18 4.36288)
(-1.21435 1.72954e-18 4.35046)
(-2.16391 -1.57456e-18 4.18466)
(-3.05073 0 3.83011)
(-3.81375 1.00608e-19 3.23924)
(-4.37111 8.81657e-19 2.38713)
(-4.63207 -8.77018e-19 1.28966)
(-4.52375 3.34548e-19 0.00637344)
(-4.06509 -3.77516e-19 -1.30833)
(-3.33083 -1.35103e-19 -2.4948)
(-2.42021 1.4917e-19 -3.43869)
(-1.42539 0 -4.09355)
(-0.389236 -1.05989e-20 -4.46587)
(0.587077 -3.1389e-20 -4.58368)
(1.53807 1.38119e-20 -4.5306)
(2.43751 -4.54283e-21 -4.35115)
(3.27186 0 -4.08104)
(4.03485 -2.5592e-21 -3.75221)
(4.72463 -2.04417e-22 -3.39162)
(5.34248 -1.24461e-21 -3.02123)
(5.89117 4.65002e-23 -2.65809)
(6.3746 2.66413e-23 -2.31407)
(6.79768 6.47893e-23 -1.99631)
(7.16592 -2.27399e-23 -1.7083)
(7.48502 7.86762e-25 -1.45107)
(7.76044 -5.32792e-25 -1.22394)
(7.99716 -1.57715e-24 -1.02496)
(8.19956 -6.69596e-26 -0.851382)
(8.37092 6.87058e-26 -0.700019)
(8.54475 1.01533e-25 -0.567621)
(-0.441177 -2.76323e-20 5.34399)
(-1.35669 -8.72321e-19 5.30615)
(-2.37645 7.68333e-19 5.07884)
(-3.30195 0 4.60783)
(-4.06435 -9.47968e-20 3.82961)
(-4.56484 0 2.71509)
(-4.69385 5.78806e-20 1.29479)
(-4.37655 4.74828e-20 -0.322729)
(-3.72312 1.04621e-20 -1.89354)
(-2.82863 0 -3.22995)
(-1.81421 -6.39269e-20 -4.23611)
(-0.758409 7.60211e-20 -4.89227)
(0.259965 -5.7128e-21 -5.21519)
(1.22785 -2.11217e-21 -5.2854)
(2.14982 -6.66659e-21 -5.17708)
(3.00577 -6.97662e-21 -4.93601)
(3.78804 1.895e-21 -4.60266)
(4.49489 4.96715e-22 -4.21209)
(5.12814 -3.3137e-22 -3.79336)
(5.69148 4.68539e-22 -3.36968)
(6.18953 -2.66425e-23 -2.95841)
(6.62741 4.57153e-23 -2.57134)
(7.01053 -7.55324e-23 -2.2155)
(7.34434 1.78583e-23 -1.89422)
(7.63416 -2.39129e-24 -1.60818)
(7.88498 0 -1.3562)
(8.10127 -1.48228e-24 -1.13582)
(8.28693 -9.7916e-25 -0.94378)
(8.44475 -6.81243e-26 -0.776435)
(8.60575 0 -0.630043)
(-0.484247 -2.36127e-19 6.37813)
(-1.39688 1.19226e-20 6.29752)
(-2.41105 -2.91342e-21 5.98557)
(-3.30551 -3.98155e-19 5.36875)
(-4.00582 4.11207e-19 4.36039)
(-4.38828 -3.97101e-19 2.92781)
(-4.30812 7.52159e-19 1.12908)
(-3.75468 -2.79318e-19 -0.835677)
(-2.92667 9.70786e-20 -2.62532)
(-1.9142 0 -4.05955)
(-0.847218 3.19717e-20 -5.07978)
(0.192059 -2.52697e-20 -5.68447)
(1.16351 3.85272e-20 -5.9465)
(2.08816 5.06092e-21 -5.95966)
(2.94614 4.68651e-21 -5.7863)
(3.72729 0 -5.47787)
(4.42972 0 -5.07911)
(5.05635 2.35618e-21 -4.62758)
(5.61242 -1.59548e-21 -4.1536)
(6.10405 -2.64646e-22 -3.68065)
(6.53745 7.15333e-23 -3.22575)
(6.91854 -1.81144e-22 -2.80026)
(7.25278 0 -2.41082)
(7.54522 0 -2.06036)
(7.80051 0 -1.74912)
(8.02283 -5.59949e-24 -1.47538)
(8.21583 1.77135e-24 -1.23621)
(8.38266 1.56357e-24 -1.02791)
(8.52546 3.51427e-26 -0.846406)
(8.67231 0 -0.68754)
(-0.45923 -2.75978e-21 7.37074)
(-1.25293 3.80796e-20 7.23107)
(-2.1552 -9.02626e-20 6.8209)
(-2.93347 0 6.04048)
(-3.50769 0 4.76997)
(-3.70234 -2.06427e-19 2.9704)
(-3.30461 1.10554e-20 0.747132)
(-2.56009 9.25669e-21 -1.51971)
(-1.61662 1.15134e-19 -3.46678)
(-0.55951 3.86926e-20 -4.94147)
(0.458033 -7.15805e-20 -5.90077)
(1.4165 -2.6807e-20 -6.4319)
(2.32392 1.32284e-21 -6.6342)
(3.16143 -1.38224e-20 -6.57933)
(3.91793 0 -6.33398)
(4.59138 0 -5.95572)
(5.1859 6.73539e-22 -5.49278)
(5.70874 1.90905e-21 -4.9842)
(6.16821 1.46544e-21 -4.46051)
(6.57243 -7.08987e-23 -3.94454)
(6.92865 7.09966e-23 -3.45249)
(7.243 1.76624e-22 -2.99491)
(7.52058 0 -2.57775)
(7.76567 -2.54338e-24 -2.20336)
(7.9819 2.54088e-24 -1.87141)
(8.17236 -3.78123e-25 -1.57971)
(8.33962 3.59241e-24 -1.32488)
(8.48584 -7.50729e-25 -1.10288)
(8.61233 1.71518e-27 -0.9093)
(8.74388 -1.70611e-27 -0.739665)
(-0.334516 4.62299e-19 8.18019)
(-0.857061 -3.43227e-19 7.97611)
(-1.51597 4.66423e-21 7.46876)
(-2.08096 -2.2394e-19 6.5174)
(-2.45526 -2.77915e-19 4.97743)
(-2.33195 -1.92682e-19 2.79212)
(-1.58997 -5.41413e-19 0.187945)
(-0.750175 2.56695e-20 -2.31554)
(0.222932 -1.17198e-19 -4.37582)
(1.1579 9.1046e-21 -5.7482)
(2.07178 4.30956e-20 -6.6435)
(2.93364 6.27832e-21 -7.11676)
(3.72233 2.83225e-21 -7.24651)
(4.42516 -3.35623e-21 -7.11459)
(5.04026 1.44776e-21 -6.79463)
(5.57314 0 -6.34869)
(6.03322 -5.93517e-21 -5.82696)
(6.43133 -2.10165e-21 -5.26871)
(6.77798 -3.05207e-23 -4.7036)
(7.08233 -9.37594e-23 -4.15322)
(7.3518 4.90245e-22 -3.63242)
(7.5921 0 -3.15062)
(7.80745 -1.36822e-22 -2.71283)
(8.00097 4.75604e-23 -2.32065)
(8.17497 3.55907e-24 -1.97318)
(8.3312 4.28587e-24 -1.66783)
(8.47097 -3.108e-24 -1.40088)
(8.59529 0 -1.16801)
(8.70452 0 -0.964643)
(8.8199 0 -0.78608)
(-0.102204 0 8.64453)
(-0.185758 -4.40783e-19 8.40439)
(-0.463472 5.61891e-19 7.87305)
(-0.71748 5.46863e-19 6.84092)
(-0.76536 -2.34902e-21 5.10695)
(-0.137773 7.00815e-19 2.30943)
(0.868962 1.70396e-19 -0.647713)
(1.60914 0 -3.12824)
(2.41754 0 -5.07549)
(3.23374 0 -6.45169)
(4.0095 -1.23729e-20 -7.29733)
(4.70903 1.16656e-20 -7.69562)
(5.31866 -3.20197e-20 -7.74378)
(5.83714 0 -7.53323)
(6.2716 0 -7.14292)
(6.63383 7.42416e-21 -6.63737)
(6.9372 -4.5274e-23 -6.06707)
(7.19461 -3.50142e-23 -5.47027)
(7.41724 7.63247e-23 -4.87499)
(7.614 5.98649e-22 -4.30097)
(7.79145 -4.78414e-22 -3.76145)
(7.95407 -1.86298e-22 -3.26443)
(8.10465 1.34406e-22 -2.81387)
(8.24479 -4.67057e-23 -2.41061)
(8.37523 -2.73433e-24 -2.05326)
(8.49622 0 -1.73887)
(8.6077 2.06432e-25 -1.46354)
(8.70947 -1.52508e-25 -1.22282)
(8.80092 -5.34419e-26 -1.01206)
(8.89956 0 -0.826502)
(0.234747 3.62593e-19 8.59098)
(0.764424 2.13654e-19 8.38367)
(1.02249 -2.3575e-19 7.91843)
(1.24767 -2.67962e-19 6.77136)
(1.76569 -6.78411e-19 4.68899)
(2.78795 -8.17284e-21 1.84773)
(3.63872 5.76959e-19 -1.13423)
(4.32386 -4.40273e-19 -3.72521)
(5.0099 1.63765e-19 -5.70219)
(5.65073 -5.80254e-20 -7.03411)
(6.20995 7.67524e-20 -7.80343)
(6.67415 -2.14824e-20 -8.11758)
(7.04533 0 -8.08521)
(7.33372 -2.32569e-20 -7.80409)
(7.55415 1.8147e-20 -7.35598)
(7.72273 -7.08351e-21 -6.8056)
(7.8546 1.10028e-20 -6.20218)
(7.96261 -5.88719e-23 -5.58186)
(8.05676 5.99564e-23 -4.97038)
(8.14419 6.7208e-22 -4.38538)
(8.22949 -4.34236e-24 -3.83827)
(8.31512 1.69418e-22 -3.33566)
(8.40193 -7.64965e-24 -2.88051)
(8.48964 7.70902e-24 -2.47304)
(8.57732 -3.91414e-23 -2.11148)
(8.66366 6.99681e-25 -1.79269)
(8.74722 3.92391e-24 -1.51272)
(8.82663 1.38636e-24 -1.26714)
(8.90035 0 -1.05138)
(8.98214 0 -0.860765)
(0.81083 1.1916e-18 7.54605)
(2.08925 -3.92452e-19 7.73953)
(2.92646 -7.88402e-19 7.49473)
(3.65347 1.44034e-18 6.32243)
(4.59579 -2.75054e-19 4.17088)
(5.84284 3.07067e-19 1.24543)
(6.72109 -6.75337e-19 -1.76428)
(7.37108 7.33026e-19 -4.30291)
(7.88823 -1.41502e-19 -6.19106)
(8.27983 0 -7.42875)
(8.5511 0 -8.10523)
(8.71905 1.5762e-20 -8.33616)
(8.80492 1.16172e-20 -8.23517)
(8.83054 4.36127e-20 -7.90176)
(8.81649 -1.5428e-20 -7.41693)
(8.78066 -8.68857e-21 -6.84321)
(8.73726 -5.33718e-21 -6.22697)
(8.69673 -1.15573e-22 -5.60146)
(8.66603 1.17818e-22 -4.98983)
(8.64914 -1.25927e-21 -4.40758)
(8.64765 -4.97373e-22 -3.86448)
(8.66138 0 -3.36599)
(8.68887 -7.86548e-24 -2.91432)
(8.72786 7.93877e-24 -2.50928)
(8.77566 3.87472e-23 -2.14892)
(8.82951 0 -1.83012)
(8.8867 -4.58801e-24 -1.54903)
(8.94479 -1.37669e-24 -1.30141)
(9.00142 0 -1.08291)
(9.06672 0 -0.889053)
(9.99642 1.10343e-22 0.126639)
(9.98432 -3.47062e-24 0.25754)
(9.96237 1.15589e-22 0.396603)
(9.93093 2.2348e-22 0.544883)
(9.89035 4.55428e-22 0.700614)
(9.84091 4.59964e-22 0.860732)
(9.78308 -9.30543e-22 1.02228)
(9.71768 -1.97733e-21 1.18349)
(9.64573 2.00216e-21 1.34414)
(9.56835 0 1.50553)
(9.48658 2.95977e-21 1.67013)
(9.40146 2.97462e-21 1.84122)
(9.3139 1.01417e-20 2.0225)
(9.22479 4.10093e-21 2.21795)
(9.13495 -8.18685e-21 2.43163)
(9.0452 0 2.66775)
(8.95634 3.37941e-20 2.93075)
(8.86925 -3.38929e-20 3.2255)
(8.7849 0 3.55754)
(8.70437 -3.36019e-20 3.93352)
(8.62897 0 4.36171)
(8.56036 -5.92001e-20 4.85287)
(8.50073 -5.83256e-20 5.42155)
(8.45333 -4.94589e-20 6.08821)
(8.42362 1.90014e-19 6.88311)
(8.42295 0 7.85347)
(8.47801 1.05478e-20 9.07814)
(8.71703 -4.6415e-20 10.695)
(9.72378 3.35672e-20 12.9309)
(10.635 2.17465e-19 16.5887)
(9.99688 -5.43432e-25 0.130958)
(9.98634 -5.33236e-23 0.266326)
(9.96725 -1.10562e-22 0.410131)
(9.93996 9.81101e-25 0.563438)
(9.90484 -6.84213e-24 0.72437)
(9.8622 3.44752e-23 0.889684)
(9.81256 -9.11399e-22 1.05624)
(9.75675 1.81171e-21 1.2221)
(9.69584 -2.29072e-21 1.38694)
(9.63097 -3.19411e-21 1.552)
(9.56329 0 1.7197)
(9.49398 0 1.89329)
(9.42419 0 2.07646)
(9.35506 2.29247e-20 2.27313)
(9.28782 -7.74269e-21 2.48732)
(9.22377 -1.53405e-20 2.72312)
(9.16438 3.11326e-20 2.98483)
(9.11136 -3.11009e-20 3.27709)
(9.06684 -9.13311e-20 3.60513)
(9.03348 6.08638e-20 3.97513)
(9.01484 0 4.39469)
(9.01582 -1.66545e-19 4.87346)
(9.04363 3.70708e-19 5.42417)
(9.10944 -1.1422e-19 6.06399)
(9.23203 -1.61748e-19 6.81666)
(9.4458 0 7.7151)
(9.8117 -7.57065e-21 8.80314)
(10.4145 0 10.1301)
(11.6053 -1.5772e-19 11.6392)
(12.8613 1.46506e-19 12.8825)
(9.99736 -5.34278e-23 0.134764)
(9.98845 5.20569e-23 0.274061)
(9.97233 1.0788e-22 0.422022)
(9.94935 -2.12072e-22 0.579714)
(9.91987 4.44793e-22 0.745145)
(9.88424 4.48e-22 0.914899)
(9.843 9.15318e-22 1.08564)
(9.797 1.82248e-21 1.25528)
(9.74731 2.196e-22 1.42336)
(9.69513 3.11741e-21 1.591)
(9.64171 0 1.76058)
(9.58834 -3.51146e-21 1.93526)
(9.53637 3.5439e-21 2.11865)
(9.48723 -1.47794e-20 2.31456)
(9.44249 0 2.52683)
(9.4039 1.48881e-20 2.75935)
(9.37352 -2.91077e-20 3.01609)
(9.35385 5.7457e-20 3.30123)
(9.34798 2.91781e-20 3.61936)
(9.35992 2.72173e-20 3.9757)
(9.39499 -1.06095e-19 4.3764)
(9.46051 5.75108e-20 4.82883)
(9.56689 4.87098e-20 5.34196)
(9.72937 -1.20405e-19 5.92651)
(9.9706 2.11362e-20 6.59448)
(10.3243 1.36046e-19 7.3569)
(10.838 0 8.21607)
(11.5391 2.90364e-20 9.15389)
(12.5647 4.73661e-20 10.1081)
(13.9892 -4.98013e-19 10.8117)
(9.99785 0 0.138006)
(9.99061 3.90814e-25 0.280632)
(9.97754 -3.91898e-25 0.432092)
(9.95897 2.0048e-22 0.593442)
(9.93526 -4.08314e-22 0.762589)
(9.90677 -4.11027e-22 0.935946)