/*--------------------------------*- C++ -*----------------------------------*\
| =========                 |                                                 |
| \\      /  F ield         | OpenFOAM: The Open Source CFD Toolbox           |
|  \\    /   O peration     | Version:  2012                                  |
|   \\  /    A nd           | Website:  www.openfoam.com                      |
|    \\/     M anipulation  |                                                 |
\*---------------------------------------------------------------------------*/
FoamFile
{
    version     2.0;
    format      ascii;
    class       volVectorField;
    location    "0.3";
    object      cellDisplacement;
}
// * * * * * * * * * * * * * * * * * * * * * * * * * * * * * * * * * * * * * //

dimensions      [0 1 0 0 0 0 0];


internalField   nonuniform List<vector> 
2790
(
(6.20141e-06 0 4.1185e-08)
(1.89919e-05 0 1.26303e-07)
(3.53329e-05 0 2.3554e-07)
(5.86724e-05 0 3.92549e-07)
(9.2808e-05 0 6.23941e-07)
(0.000142352 0 9.62544e-07)
(0.00021295 0 1.44943e-06)
(0.000311387 0 2.13545e-06)
(0.000445574 0 3.08241e-06)
(0.000624375 0 4.36412e-06)
(0.000857263 0 6.06758e-06)
(0.00115374 0 8.29482e-06)
(0.00152253 0 1.11663e-05)
(0.00197047 0 1.48271e-05)
(0.00250109 0 1.94567e-05)
(0.00311301 0 2.52858e-05)
(0.0037979 0 3.26187e-05)
(0.00453849 0 4.18672e-05)
(0.00530644 0 5.35945e-05)
(0.00606072 0 6.85739e-05)
(0.0067467 0 8.78646e-05)
(0.00729683 0 0.000112909)
(0.00763354 0 0.000145653)
(0.00767548 0 0.000188698)
(0.0073477 0 0.000245464)
(0.00659734 0 0.000320335)
(0.0054163 0 0.000418517)
(0.00387658 0 0.000544184)
(0.00219485 0 0.000689739)
(0.000899429 0 0.000792749)
(5.78387e-06 0 1.20798e-07)
(1.78249e-05 0 3.71058e-07)
(3.33502e-05 0 6.93078e-07)
(5.56082e-05 0 1.15649e-06)
(8.82883e-05 0 1.84015e-06)
(0.0001359 0 2.84156e-06)
(0.000203995 0 4.28277e-06)
(0.000299285 0 6.31493e-06)
(0.000429643 0 9.1217e-06)
(0.00060396 0 1.29221e-05)
(0.000831823 0 1.79737e-05)
(0.00112298 0 2.45773e-05)
(0.00148658 0 3.30861e-05)
(0.00193011 0 4.39224e-05)
(0.0024581 0 5.76057e-05)
(0.0030705 0 7.47972e-05)
(0.00376085 0 9.63654e-05)
(0.00451432 0 0.000123477)
(0.00530567 0 0.000157721)
(0.00609772 0 0.000201261)
(0.00684045 0 0.000257037)
(0.00747169 0 0.000328998)
(0.00792001 0 0.000422365)
(0.00811091 0 0.000543871)
(0.00797728 0 0.000701812)
(0.00747538 0 0.000905493)
(0.00660857 0 0.00116298)
(0.00546348 0 0.00147466)
(0.00426842 0 0.00181735)
(0.00349027 0 0.00210716)
(5.67379e-06 0 1.9639e-07)
(1.7542e-05 0 6.04532e-07)
(3.28725e-05 0 1.13097e-06)
(5.48783e-05 0 1.88909e-06)
(8.72299e-05 0 3.00822e-06)
(0.00013443 0 4.64838e-06)
(0.000202044 0 7.00989e-06)
(0.000296827 0 1.03406e-05)
(0.000426748 0 1.49409e-05)
(0.000600873 0 2.11681e-05)
(0.00082908 0 2.94397e-05)
(0.00112158 0 4.02394e-05)
(0.00148821 0 5.41296e-05)
(0.00193749 0 7.17733e-05)
(0.00247537 0 9.39755e-05)
(0.00310385 0 0.000121747)
(0.0038192 0 0.000156399)
(0.00461025 0 0.000199681)
(0.00545654 0 0.000253948)
(0.00632693 0 0.000322388)
(0.00717892 0 0.000409277)
(0.00795938 0 0.00052027)
(0.00860745 0 0.000662666)
(0.00906049 0 0.000845524)
(0.00926405 0 0.0010793)
(0.00918647 0 0.00137427)
(0.0088385 0 0.00173597)
(0.00829758 0 0.00215456)
(0.00773419 0 0.00258292)
(0.00744147 0 0.0028989)
(5.58441e-06 0 2.69226e-07)
(1.72963e-05 0 8.3e-07)
(3.24542e-05 0 1.55406e-06)
(5.42456e-05 0 2.59662e-06)
(8.63322e-05 0 4.13529e-06)
(0.000133226 0 6.38972e-06)
(0.000200531 0 9.63447e-06)
(0.000295086 0 1.42083e-05)
(0.000425017 0 2.05204e-05)
(0.000599658 0 2.90541e-05)
(0.000829315 0 4.03695e-05)
(0.00112486 0 5.51076e-05)
(0.0014971 0 7.40008e-05)
(0.00195596 0 9.78957e-05)
(0.0025094 0 0.000127797)
(0.00316216 0 0.00016494)
(0.00391427 0 0.000210898)
(0.00475946 0 0.000267738)
(0.00568371 0 0.000338215)
(0.00666396 0 0.000426009)
(0.00766763 0 0.000535988)
(0.00865332 0 0.000674457)
(0.00957345 0 0.00084931)
(0.0103794 0 0.00106987)
(0.0110297 0 0.00134599)
(0.0115008 0 0.00168551)
(0.0117985 0 0.00208833)
(0.0119652 0 0.00253391)
(0.0120754 0 0.00295939)
(0.0122339 0 0.00323544)
(5.5098e-06 0 3.38904e-07)
(1.7084e-05 0 1.04585e-06)
(3.20913e-05 0 1.95887e-06)
(5.37025e-05 0 3.27263e-06)
(8.55791e-05 0 5.21015e-06)
(0.000132256 0 8.04683e-06)
(0.000199393 0 1.2126e-05)
(0.000293946 0 1.78698e-05)
(0.000424245 0 2.57851e-05)
(0.000599961 0 3.64658e-05)
(0.000831931 0 5.05919e-05)
(0.00113183 0 6.89284e-05)
(0.00151166 0 9.23289e-05)
(0.00198304 0 0.000121752)
(0.00255633 0 0.000158295)
(0.00323954 0 0.000203264)
(0.00403711 0 0.000258277)
(0.00494859 0 0.000325405)
(0.00596741 0 0.000407369)
(0.0070798 0 0.000507743)
(0.00826442 0 0.000631178)
(0.00949281 0 0.000783555)
(0.0107314 0 0.000971959)
(0.011945 0 0.00120425)
(0.0131023 0 0.00148779)
(0.0141813 0 0.00182653)
(0.0151708 0 0.00221501)
(0.0160608 0 0.0026272)
(0.0168137 0 0.00299875)
(0.0173499 0 0.00321474)
(5.44691e-06 0 4.05045e-07)
(1.69018e-05 0 1.25067e-06)
(3.17791e-05 0 2.34239e-06)
(5.32395e-05 0 3.91155e-06)
(8.49505e-05 0 6.22308e-06)
(0.000131478 0 9.60341e-06)
(0.000198553 0 1.44581e-05)
(0.000293266 0 2.12834e-05)
(0.000424183 0 3.0671e-05)
(0.000601355 0 4.33072e-05)
(0.000836217 0 5.99658e-05)
(0.00114134 0 8.14983e-05)
(0.00153004 0 0.000108825)
(0.0020158 0 0.000142938)
(0.00261161 0 0.000184914)
(0.00332901 0 0.000235967)
(0.00417721 0 0.000297525)
(0.00516196 0 0.000371351)
(0.00628452 0 0.000459693)
(0.00754079 0 0.000565455)
(0.00892081 0 0.000692333)
(0.0104088 0 0.000844875)
(0.0119841 0 0.00102831)
(0.0136228 0 0.00124796)
(0.0152994 0 0.00150792)
(0.0169864 0 0.0018084)
(0.0186472 0 0.00214098)
(0.0202123 0 0.00248039)
(0.0215327 0 0.0027719)
(0.0223646 0 0.00292503)
(5.39406e-06 0 4.67342e-07)
(1.6747e-05 0 1.44337e-06)
(3.15128e-05 0 2.70227e-06)
(5.28463e-05 0 4.50896e-06)
(8.44245e-05 0 7.16632e-06)
(0.000130848 0 1.10464e-05)
(0.000197926 0 1.66097e-05)
(0.000292891 0 2.44161e-05)
(0.000424556 0 3.51281e-05)
(0.00060337 0 4.95047e-05)
(0.000841388 0 6.83864e-05)
(0.00115211 0 9.26726e-05)
(0.00155019 0 0.000123297)
(0.00205104 0 0.000161204)
(0.00267028 0 0.000207345)
(0.00342305 0 0.000262685)
(0.00432329 0 0.000328252)
(0.00538285 0 0.000405214)
(0.00661063 0 0.000494976)
(0.00801172 0 0.000599298)
(0.00958669 0 0.000720362)
(0.011331 0 0.000860759)
(0.0132348 0 0.00102326)
(0.0152818 0 0.00121026)
(0.0174479 0 0.00142264)
(0.0196948 0 0.00165793)
(0.0219561 0 0.00190726)
(0.0241029 0 0.00215054)
(0.0258857 0 0.00234841)
(0.0269227 0 0.00243877)
(5.35033e-06 0 5.256e-07)
(1.66176e-05 0 1.62324e-06)
(3.12882e-05 0 3.03692e-06)
(5.25131e-05 0 5.06176e-06)
(8.39795e-05 0 8.03432e-06)
(0.000130323 0 1.23665e-05)
(0.000197426 0 1.85655e-05)
(0.000292663 0 2.72444e-05)
(0.000425084 0 3.91217e-05)
(0.000605527 0 5.50094e-05)
(0.000846643 0 7.57878e-05)
(0.00116283 0 0.000102368)
(0.00157004 0 0.000135647)
(0.00208551 0 0.000176456)
(0.00272737 0 0.000225523)
(0.00351414 0 0.000283438)
(0.00446416 0 0.000350662)
(0.00559488 0 0.000427542)
(0.00692207 0 0.000514371)
(0.00845891 0 0.000611443)
(0.0102149 0 0.000719088)
(0.0121946 0 0.000837637)
(0.0143958 0 0.000967231)
(0.0168064 0 0.00110743)
(0.0193994 0 0.00125652)
(0.0221223 0 0.00141055)
(0.0248777 0 0.00156211)
(0.0274835 0 0.00169855)
(0.0296071 0 0.00179838)
(0.0307639 0 0.00183027)
(5.31533e-06 0 5.79753e-07)
(1.65124e-05 0 1.78996e-06)
(3.11024e-05 0 3.34555e-06)
(5.22319e-05 0 5.56832e-06)
(8.35966e-05 0 8.82398e-06)
(0.000129861 0 1.35582e-05)
(0.000196974 0 2.03169e-05)
(0.000292433 0 2.9755e-05)
(0.000425503 0 4.26329e-05)
(0.000607369 0 5.97968e-05)
(0.000851225 0 8.21426e-05)
(0.00117227 0 0.000110562)
(0.00158763 0 0.000145873)
(0.00211616 0 0.000188741)
(0.00277824 0 0.0002396)
(0.00359533 0 0.000298579)
(0.00458959 0 0.000365453)
(0.00578324 0 0.000439621)
(0.00719775 0 0.000520108)
(0.00885284 0 0.000605597)
(0.0107649 0 0.000694453)
(0.012945 0 0.000784728)
(0.0153955 0 0.000874105)
(0.018105 0 0.000959763)
(0.0210402 0 0.0010382)
(0.0241326 0 0.00110513)
(0.0272554 0 0.00115583)
(0.0301821 0 0.00118596)
(0.03252 0 0.0011922)
(0.0337238 0 0.00117343)
(5.28913e-06 0 6.29875e-07)
(1.64317e-05 0 1.9437e-06)
(3.09543e-05 0 3.6283e-06)
(5.1998e-05 0 6.02855e-06)
(8.32619e-05 0 9.53476e-06)
(0.000129431 0 1.46203e-05)
(0.000196504 0 2.18615e-05)
(0.000292076 0 3.19448e-05)
(0.000425584 0 4.56587e-05)
(0.000608502 0 6.38667e-05)
(0.000854469 0 8.74595e-05)
(0.00117936 0 0.000117284)
(0.00160125 0 0.00015405)
(0.00214037 0 0.000198223)
(0.0028189 0 0.000249902)
(0.0036607 0 0.000308708)
(0.00469098 0 0.000373689)
(0.00593566 0 0.000443249)
(0.00742057 0 0.000515124)
(0.00917015 0 0.000586402)
(0.0112055 0 0.000653575)
(0.0135416 0 0.000712637)
(0.0161825 0 0.000759208)
(0.0191149 0 0.000788718)
(0.0222971 0 0.000796733)
(0.0256441 0 0.000779628)
(0.0290032 0 0.000736056)
(0.0321138 0 0.000669834)
(0.0345471 0 0.000593941)
(0.0357369 0 0.000533058)
(5.27233e-06 0 6.76197e-07)
(1.63769e-05 0 2.08511e-06)
(3.08454e-05 0 3.88622e-06)
(5.18109e-05 0 6.44395e-06)
(8.29694e-05 0 1.01687e-05)
(0.000129014 0 1.55556e-05)
(0.000195971 0 2.32036e-05)
(0.000291499 0 3.38205e-05)
(0.000425156 0 4.82106e-05)
(0.000608619 0 6.72402e-05)
(0.000855857 0 9.17781e-05)
(0.00118324 0 0.000122609)
(0.00160957 0 0.000160318)
(0.00215607 0 0.000205152)
(0.00284625 0 0.00025687)
(0.00370575 0 0.000314584)
(0.00476188 0 0.000376632)
(0.00604316 0 0.000440472)
(0.00757828 0 0.000502644)
(0.00939464 0 0.000558802)
(0.011516 0 0.000603821)
(0.0139589 0 0.000632019)
(0.0167271 0 0.00063748)
(0.0198034 0 0.000614557)
(0.0231376 0 0.000558646)
(0.0266295 0 0.00046747)
(0.0301053 0 0.000343373)
(0.0332809 0 0.000197546)
(0.0357107 0 5.64546e-05)
(0.0368391 0 -3.48687e-05)
(5.26608e-06 0 7.19097e-07)
(1.63512e-05 0 2.21529e-06)
(3.07807e-05 0 4.12125e-06)
(5.16758e-05 0 6.81755e-06)
(8.27221e-05 0 1.07304e-05)
(0.000128606 0 1.63709e-05)
(0.000195355 0 2.43532e-05)
(0.000290653 0 3.53977e-05)
(0.000424114 0 5.03131e-05)
(0.000607525 0 6.99565e-05)
(0.000855048 0 9.51632e-05)
(0.00118335 0 0.000126645)
(0.00161168 0 0.000164856)
(0.00216187 0 0.000209831)
(0.00285826 0 0.000261003)
(0.00372752 0 0.00031702)
(0.00479822 0 0.000375584)
(0.00610026 0 0.000433332)
(0.0076638 0 0.000485797)
(0.00951755 0 0.00052747)
(0.0116861 0 0.000551988)
(0.0141858 0 0.000552474)
(0.0170189 0 0.000522058)
(0.020164 0 0.000454638)
(0.0235637 0 0.000345993)
(0.0271066 0 0.000195494)
(0.0306037 0 8.94292e-06)
(0.0337564 0 -0.000196424)
(0.0361157 0 -0.00038411)
(0.0371573 0 -0.000494982)
(5.27217e-06 0 7.59102e-07)
(1.63598e-05 0 2.33582e-06)
(3.07684e-05 0 4.3362e-06)
(5.16044e-05 0 7.15382e-06)
(8.25341e-05 0 1.12267e-05)
(0.00012822 0 1.70764e-05)
(0.000194668 0 2.53259e-05)
(0.000289537 0 3.66994e-05)
(0.000422432 0 5.20012e-05)
(0.000605151 0 7.20696e-05)
(0.000851897 0 9.76978e-05)
(0.00117943 0 0.000129521)
(0.00160715 0 0.000167869)
(0.00215712 0 0.000212579)
(0.00285398 0 0.000262804)
(0.00372472 0 0.000316799)
(0.00479831 0 0.00037175)
(0.00610495 0 0.000423654)
(0.00767498 0 0.000467293)
(0.00953697 0 0.000496347)
(0.0117149 0 0.000503659)
(0.0142239 0 0.0004817)
(0.0170639 0 0.000423238)
(0.0202107 0 0.000322273)
(0.0236026 0 0.000175327)
(0.0271233 0 -1.66571e-05)
(0.0305772 0 -0.000245232)
(0.033658 0 -0.000489024)
(0.0359154 0 -0.000705199)
(0.0368589 0 -0.00082695)
(5.29309e-06 0 7.96882e-07)
(1.64098e-05 0 2.4487e-06)
(3.0821e-05 0 4.5347e-06)
(5.16151e-05 0 7.45858e-06)
(8.24309e-05 0 1.16664e-05)
(0.000127892 0 1.76857e-05)
(0.000193951 0 2.61417e-05)
(0.000288202 0 3.77553e-05)
(0.000420168 0 5.33187e-05)
(0.000601557 0 7.36438e-05)
(0.000846466 0 9.94773e-05)
(0.00117154 0 0.000131379)
(0.00159605 0 0.000169564)
(0.0021419 0 0.000213708)
(0.00283353 0 0.000262734)
(0.00369764 0 0.000314603)
(0.00476275 0 0.000366132)
(0.00605843 0 0.000412891)
(0.00761409 0 0.000449205)
(0.00945701 0 0.000468322)
(0.0116095 0 0.00046277)
(0.0140845 0 0.000424916)
(0.01688 0 0.00034775)
(0.0199703 0 0.000225898)
(0.0232945 0 5.69184e-05)
(0.0267395 0 -0.000156914)
(0.0301162 0 -0.000405753)
(0.0331203 0 -0.000666854)
(0.0352898 0 -0.000895243)
(0.0361377 0 -0.00102)
(5.33208e-06 0 8.33246e-07)
(1.65108e-05 0 2.55634e-06)
(3.09551e-05 0 4.72109e-06)
(5.17338e-05 0 7.73884e-06)
(8.24506e-05 0 1.20604e-05)
(0.000127675 0 1.82149e-05)
(0.00019328 0 2.68245e-05)
(0.000286751 0 3.86006e-05)
(0.000417464 0 5.43163e-05)
(0.000596935 0 7.47516e-05)
(0.000839019 0 0.000100604)
(0.00116005 0 0.000132364)
(0.0015789 0 0.000170147)
(0.00211697 0 0.000213501)
(0.00279804 0 0.000261188)
(0.00364797 0 0.000310978)
(0.00469413 0 0.000359476)
(0.00596466 0 0.000402045)
(0.00748711 0 0.000432849)
(0.00928657 0 0.000445086)
(0.0113828 0 0.000431413)
(0.0137861 0 0.000384605)
(0.0164925 0 0.00029841)
(0.0194766 0 0.000168578)
(0.0226817 0 -5.93708e-06)
(0.0260078 0 -0.000221546)
(0.0292907 0 -0.000468045)
(0.0322556 0 -0.000724976)
(0.0344285 0 -0.000954468)
(0.0351752 0 -0.00109038)
(0.000874453 0 -0.000850292)
(0.00244287 0 -0.000781504)
(0.00445531 0 -0.000641482)
(0.00623635 0 -0.000501598)
(0.0075347 0 -0.00038093)
(0.00829524 0 -0.000281753)
(0.00856113 0 -0.000202699)
(0.00841892 0 -0.000141406)
(0.007968 0 -9.5161e-05)
(0.00730467 0 -6.12271e-05)
(0.00651418 0 -3.70615e-05)
(0.00566735 0 -2.04283e-05)
(0.00481962 0 -9.44199e-06)
(0.00401174 0 -2.56606e-06)
(0.00327124 0 1.41489e-06)
(0.00261441 0 3.43475e-06)
(0.00204845 0 4.1901e-06)
(0.00157359 0 4.18369e-06)
(0.00118501 0 3.76487e-06)
(0.000874635 0 3.16526e-06)
(0.000632501 0 2.5292e-06)
(0.00044797 0 1.93869e-06)
(0.000310577 0 1.43327e-06)
(0.000210629 0 1.02518e-06)
(0.000139575 0 7.1046e-07)
(9.01613e-05 0 4.76672e-07)
(5.64262e-05 0 3.0796e-07)
(3.35689e-05 0 1.8793e-07)
(1.77144e-05 0 1.00929e-07)
(5.59644e-06 0 3.21173e-08)
(0.00338922 0 -0.00230838)
(0.00456678 0 -0.00209835)
(0.00612498 0 -0.0017639)
(0.00750366 0 -0.00140671)
(0.008472 0 -0.00108122)
(0.00897096 0 -0.00080536)
(0.00903428 0 -0.000581778)
(0.00873838 0 -0.000406749)
(0.00817333 0 -0.000273896)
(0.00742724 0 -0.000176041)
(0.00657849 0 -0.000106196)
(0.00569213 0 -5.80732e-05)
(0.00481893 0 -2.6298e-05)
(0.00399586 0 -6.45081e-06)
(0.00324746 0 4.98432e-06)
(0.00258771 0 1.07201e-05)
(0.00202205 0 1.27851e-05)
(0.00154939 0 1.26456e-05)
(0.001164 0 1.13211e-05)
(0.000857139 0 9.48704e-06)
(0.000618453 0 7.56334e-06)
(0.000437049 0 5.78758e-06)
(0.000302337 0 4.27298e-06)
(0.000204591 0 3.05296e-06)
(0.00013528 0 2.11373e-06)
(8.72033e-05 0 1.41705e-06)
(5.44739e-05 0 9.14935e-07)
(3.23713e-05 0 5.5816e-07)
(1.71013e-05 0 2.99899e-07)
(5.45112e-06 0 9.57479e-08)
(0.00724556 0 -0.00330864)
(0.00810058 0 -0.00305805)
(0.00909175 0 -0.0026179)
(0.00986849 0 -0.00211887)
(0.010301 0 -0.00164616)
(0.0103566 0 -0.00123533)
(0.0100664 0 -0.000896747)
(0.00949548 0 -0.000628637)
(0.00872031 0 -0.000423488)
(0.00781632 0 -0.000271536)
(0.00685074 0 -0.000162691)
(0.00587932 0 -8.75749e-05)
(0.00494522 0 -3.80015e-05)
(0.00407931 0 -7.14649e-06)
(0.00330136 0 1.04741e-05)
(0.00262164 0 1.91217e-05)
(0.00204279 0 2.19987e-05)
(0.00156164 0 2.14276e-05)
(0.00117095 0 1.90252e-05)
(0.000860888 0 1.58628e-05)
(0.000620343 0 1.26044e-05)
(0.000437911 0 9.62298e-06)
(0.000302668 0 7.09311e-06)
(0.000204672 0 5.06193e-06)
(0.000135261 0 3.50169e-06)
(8.7159e-05 0 2.34619e-06)
(5.44373e-05 0 1.51439e-06)
(3.23541e-05 0 9.23952e-07)
(1.71029e-05 0 4.96901e-07)
(5.45502e-06 0 1.59193e-07)
(0.0119703 0 -0.00390877)
(0.0124864 0 -0.00364695)
(0.0128623 0 -0.00316333)
(0.0129432 0 -0.00259186)
(0.0127248 0 -0.00203389)
(0.012222 0 -0.00153793)
(0.011475 0 -0.00112224)
(0.0105415 0 -0.000788813)
(0.00948485 0 -0.000531214)
(0.00836649 0 -0.00033907)
(0.00724042 0 -0.000200804)
(0.00615082 0 -0.00010519)
(0.00513115 0 -4.21568e-05)
(0.00420434 0 -3.14567e-06)
(0.00338382 0 1.88185e-05)
(0.00267492 0 2.92115e-05)
(0.00207645 0 3.21787e-05)
(0.00158241 0 3.07412e-05)
(0.00118343 0 2.70078e-05)
(0.000868184 0 2.23753e-05)
(0.000624477 0 1.7707e-05)
(0.000440178 0 1.34827e-05)
(0.000303867 0 9.92084e-06)
(0.000205284 0 7.07216e-06)
(0.000135564 0 4.88928e-06)
(8.73072e-05 0 3.27509e-06)
(5.45126e-05 0 2.11415e-06)
(3.23973e-05 0 1.29046e-06)
(1.71305e-05 0 6.94726e-07)
(5.4657e-06 0 2.23086e-07)
(0.0170613 0 -0.00416137)
(0.0172337 0 -0.00389937)
(0.0169981 0 -0.00341104)
(0.0163706 0 -0.00282065)
(0.0154699 0 -0.00223191)
(0.0143657 0 -0.00169888)
(0.0131149 0 -0.00124511)
(0.0117735 0 -0.000876464)
(0.0103949 0 -0.000588756)
(0.00902788 0 -0.000372542)
(0.00771331 0 -0.000216227)
(0.00648339 0 -0.000107974)
(0.00536109 0 -3.68115e-05)
(0.00436056 0 6.80784e-06)
(0.00348804 0 3.07999e-05)
(0.00274312 0 4.1459e-05)
(0.00212021 0 4.35946e-05)
(0.0016099 0 4.07327e-05)
(0.00120034 0 3.53418e-05)
(0.000878348 0 2.90566e-05)
(0.000630451 0 2.28817e-05)
(0.000443612 0 1.73672e-05)
(0.000305801 0 1.27528e-05)
(0.000206355 0 9.07954e-06)
(0.00013615 0 6.27292e-06)
(8.76287e-05 0 4.20111e-06)
(5.46914e-05 0 2.71244e-06)
(3.24987e-05 0 1.65657e-06)
(1.71858e-05 0 8.92712e-07)
(5.4844e-06 0 2.87161e-07)
(0.0220927 0 -0.00410414)
(0.0219303 0 -0.00385468)
(0.0211246 0 -0.00339218)
(0.0198332 0 -0.0028249)
(0.0182813 0 -0.00225013)
(0.016591 0 -0.00172161)
(0.014839 0 -0.0012652)
(0.0130837 0 -0.000889811)
(0.0113731 0 -0.00059389)
(0.00974559 0 -0.000369877)
(0.00823102 0 -0.000207263)
(0.00685052 0 -9.46532e-05)
(0.00561699 0 -2.10681e-05)
(0.00453581 0 2.33117e-05)
(0.0036059 0 4.6795e-05)
(0.00282094 0 5.60879e-05)
(0.00217063 0 5.63693e-05)
(0.00164194 0 5.14624e-05)
(0.0012203 0 4.40515e-05)
(0.000890545 0 3.59117e-05)
(0.000637764 0 2.81246e-05)
(0.00044792 0 2.12695e-05)
(0.000308302 0 1.5582e-05)
(0.000207791 0 1.10783e-05)
(0.000136971 0 7.6484e-06)
(8.80991e-05 0 5.12141e-06)
(5.49625e-05 0 3.30748e-06)
(3.26543e-05 0 2.02123e-06)
(1.72688e-05 0 1.09028e-06)
(5.51158e-06 0 3.51208e-07)
(0.026699 0 -0.00377654)
(0.026235 0 -0.00355804)
(0.0249365 0 -0.00314939)
(0.0230688 0 -0.00263881)
(0.0209431 0 -0.00211308)
(0.0187258 0 -0.00162224)
(0.0165139 0 -0.00119242)
(0.0143717 0 -0.00083458)
(0.0123449 0 -0.000549747)
(0.0104656 0 -0.000332693)
(0.00875504 0 -0.000174704)
(0.00722515 0 -6.55943e-05)
(0.00588008 0 4.9074e-06)
(0.00471729 0 4.62864e-05)
(0.00372883 0 6.67563e-05)
(0.0029027 0 7.30603e-05)
(0.002224 0 7.04679e-05)
(0.00167615 0 6.28974e-05)
(0.00124182 0 5.31072e-05)
(0.000903853 0 4.29152e-05)
(0.000645859 0 3.34152e-05)
(0.000452776 0 2.51741e-05)
(0.000311183 0 1.83972e-05)
(0.00020949 0 1.30607e-05)
(0.000137972 0 9.01064e-06)
(8.8691e-05 0 6.03285e-06)
(5.53135e-05 0 3.89743e-06)
(3.28594e-05 0 2.38343e-06)
(1.73783e-05 0 1.28691e-06)
(5.54726e-06 0 4.15058e-07)
(0.0306014 0 -0.00323948)
(0.0298942 0 -0.00306978)
(0.0282085 0 -0.00273682)
(0.0258818 0 -0.00230684)
(0.0232892 0 -0.00185468)
(0.0206336 0 -0.00142526)
(0.0180304 0 -0.00104364)
(0.0155521 0 -0.000722005)
(0.0132456 0 -0.000463597)
(0.0111396 0 -0.000265597)
(0.00925 0 -0.000121429)
(0.00758192 0 -2.25868e-05)
(0.00613252 0 4.00031e-05)
(0.00489263 0 7.50357e-05)
(0.0038484 0 9.02427e-05)
(0.00298275 0 9.20923e-05)
(0.00227663 0 8.57046e-05)
(0.00171013 0 7.49146e-05)
(0.0012634 0 6.24266e-05)
(0.000917336 0 5.0012e-05)
(0.000654171 0 3.8717e-05)
(0.000457845 0 2.90569e-05)
(0.000314254 0 2.11829e-05)
(0.000211347 0 1.5017e-05)
(0.000139098 0 1.03538e-05)
(8.93772e-05 0 6.93207e-06)
(5.5732e-05 0 4.48047e-06)
(3.31093e-05 0 2.74222e-06)
(1.75133e-05 0 1.48216e-06)
(5.59136e-06 0 4.78573e-07)
(0.0336161 0 -0.00257083)
(0.0327483 0 -0.00246134)
(0.0307988 0 -0.002216)
(0.0281452 0 -0.00187909)
(0.0252078 0 -0.00151392)
(0.0222178 0 -0.0011598)
(0.0193078 0 -0.000839892)
(0.0165595 0 -0.000566802)
(0.0140232 0 -0.000345482)
(0.0117278 0 -0.000175304)
(0.00968601 0 -5.18591e-05)
(0.00789888 0 3.14932e-05)
(0.00635852 0 8.23611e-05)
(0.00505073 0 0.000108365)
(0.00395694 0 0.000116487)
(0.00305589 0 0.000112692)
(0.00232505 0 0.000101764)
(0.00174165 0 8.73127e-05)
(0.0012836 0 7.18814e-05)
(0.000930106 0 5.7121e-05)
(0.000662161 0 4.39791e-05)
(0.000462811 0 3.28865e-05)
(0.000317335 0 2.39201e-05)
(0.000213264 0 1.69361e-05)
(0.000140298 0 1.16716e-05)
(9.01334e-05 0 7.81563e-06)
(5.62078e-05 0 5.05483e-06)
(3.34006e-05 0 3.09678e-06)
(1.76733e-05 0 1.67569e-06)
(5.64392e-06 0 5.41654e-07)
(0.0356693 0 -0.00185616)
(0.034733 0 -0.00180831)
(0.0326459 0 -0.00165029)
(0.0297976 0 -0.00140682)
(0.0266383 0 -0.00113105)
(0.0234215 0 -0.00085654)
(0.0202947 0 -0.000603873)
(0.0173492 0 -0.000385319)
(0.0146409 0 -0.000206894)
(0.0122004 0 -6.9728e-05)
(0.01004 0 2.86476e-05)
(0.00815856 0 9.30672e-05)
(0.00654522 0 0.000129618)
(0.00518233 0 0.000144728)
(0.00404794 0 0.000144487)
(0.00311768 0 0.000134214)
(0.00236628 0 0.000118235)
(0.00176873 0 9.98305e-05)
(0.00130116 0 8.13081e-05)
(0.000941379 0 6.41409e-05)
(0.000669355 0 4.91397e-05)
(0.000467398 0 3.6626e-05)
(0.000320271 0 2.65872e-05)
(0.000215158 0 1.88057e-05)
(0.000141532 0 1.29573e-05)
(9.09414e-05 0 8.68014e-06)
(5.67343e-05 0 5.61893e-06)
(3.37318e-05 0 3.44646e-06)
(1.78585e-05 0 1.86725e-06)
(5.70528e-06 0 6.04245e-07)
(0.0367961 0 -0.00118059)
(0.0358743 0 -0.00118331)
(0.033761 0 -0.00109944)
(0.0308355 0 -0.000938383)
(0.027566 0 -0.000744336)
(0.0242229 0 -0.000545033)
(0.0209664 0 -0.000357833)
(0.0178969 0 -0.000193898)
(0.0150762 0 -5.95688e-05)
(0.0125382 0 4.28706e-05)
(0.0102961 0 0.000114379)
(0.00834853 0 0.000158245)
(0.00668313 0 0.000179161)
(0.00528043 0 0.00018239)
(0.00411639 0 0.000173104)
(0.00316459 0 0.00015592)
(0.00239793 0 0.000134643)
(0.00178982 0 0.000112169)
(0.00131507 0 9.05203e-05)
(0.000950529 0 7.09577e-05)
(0.000675378 0 5.41305e-05)
(0.000471389 0 4.02352e-05)
(0.000322944 0 2.91614e-05)
(0.00021697 0 2.06135e-05)
(0.000142771 0 1.42045e-05)
(9.17915e-05 0 9.52256e-06)
(5.73098e-05 0 6.1715e-06)
(3.41046e-05 0 3.79083e-06)
(1.80709e-05 0 2.05678e-06)
(5.77626e-06 0 6.66349e-07)
(0.0371259 0 -0.000604312)
(0.0362754 0 -0.000641595)
(0.0342165 0 -0.000611643)
(0.0313037 0 -0.000514318)
(0.0280142 0 -0.000386706)
(0.0246301 0 -0.000251192)
(0.0213214 0 -0.000121635)
(0.0181958 0 -7.40721e-06)
(0.0153202 0 8.56025e-05)
(0.0127317 0 0.000154669)
(0.0104458 0 0.000199816)
(0.00846141 0 0.000223196)
(0.00676635 0 0.000228371)
(0.00534049 0 0.000219588)
(0.00415892 0 0.000201167)
(0.00319423 0 0.000177045)
(0.00241835 0 0.000150497)
(0.00180379 0 0.000124017)
(0.00132464 0 9.93247e-05)
(0.000957116 0 7.74538e-05)
(0.000679971 0 5.88816e-05)
(0.000474641 0 4.36741e-05)
(0.000325281 0 3.16206e-05)
(0.000218667 0 2.23477e-05)
(0.000144008 0 1.54076e-05)
(9.26847e-05 0 1.03405e-05)
(5.79394e-05 0 6.71178e-06)
(3.45244e-05 0 4.12983e-06)
(1.83145e-05 0 2.24441e-06)
(5.85833e-06 0 7.28039e-07)
(0.0368311 0 -0.000161067)
(0.0360851 0 -0.000217771)
(0.0341246 0 -0.000219772)
(0.0312803 0 -0.000163908)
(0.0280331 0 -8.28546e-05)
(0.0246731 0 4.94897e-06)
(0.0213759 0 8.89404e-05)
(0.0182533 0 0.000162018)
(0.0153749 0 0.000219487)
(0.0127805 0 0.000258936)
(0.0104869 0 0.000280092)
(0.00849476 0 0.000284469)
(0.00679248 0 0.000274844)
(0.00536044 0 0.000254677)
(0.00417388 0 0.000227572)
(0.00320538 0 0.000196859)
(0.00242666 0 0.000165324)
(0.00181007 0 0.000135074)
(0.00132948 0 0.000107536)
(0.000960921 0 8.35173e-05)
(0.000683015 0 6.33277e-05)
(0.0004771 0 4.69059e-05)
(0.000327266 0 3.39451e-05)
(0.000220253 0 2.39986e-05)
(0.000145253 0 1.65624e-05)
(9.36348e-05 0 1.11325e-05)
(5.86358e-05 0 7.23968e-06)
(3.5001e-05 0 4.46386e-06)
(1.85954e-05 0 2.43053e-06)
(5.95369e-06 0 7.89477e-07)
(0.0361134 0 0.000126252)
(0.0354782 0 6.84071e-05)
(0.0336136 0 5.82768e-05)
(0.0308553 0 9.64801e-05)
(0.0276837 0 0.000152682)
(0.0243925 0 0.000210875)
(0.0211568 0 0.000263422)
(0.0180867 0 0.000305862)
(0.0152515 0 0.000335354)
(0.0126909 0 0.000350494)
(0.0104233 0 0.000351329)
(0.00845049 0 0.000339228)
(0.00676239 0 0.000316556)
(0.00534059 0 0.000286243)
(0.00416133 0 0.000251353)
(0.00319796 0 0.000214719)
(0.00242281 0 0.000178705)
(0.00180862 0 0.000145076)
(0.00132958 0 0.00011499)
(0.000961957 0 8.90502e-05)
(0.000684543 0 6.74125e-05)
(0.000478806 0 4.99e-05)
(0.000328942 0 3.61195e-05)
(0.000221769 0 2.55595e-05)
(0.000146541 0 1.76665e-05)
(9.46703e-05 0 1.18986e-05)
(5.94204e-05 0 7.756e-06)
(3.55493e-05 0 4.79385e-06)
(1.89226e-05 0 2.61585e-06)
(6.06548e-06 0 8.50934e-07)
(0.0351596 0 0.000277283)
(0.03464 0 0.000218369)
(0.0327956 0 0.000221899)
(0.0300985 0 0.000265727)
(0.0270169 0 0.000317313)
(0.0238281 0 0.000362708)
(0.0206949 0 0.000397334)
(0.0177196 0 0.000419682)
(0.0149669 0 0.000429197)
(0.0124753 0 0.000425965)
(0.0102634 0 0.000410823)
(0.00833435 0 0.000385399)
(0.0066799 0 0.000351971)
(0.00528343 0 0.000313188)
(0.00412288 0 0.000271746)
(0.00317305 0 0.00023011)
(0.00240748 0 0.000190302)
(0.0017999 0 0.000153807)
(0.00132527 0 0.000121555)
(0.000960471 0 9.39756e-05)
(0.000684738 0 7.10934e-05)
(0.0004799 0 5.26345e-05)
(0.000330414 0 3.8134e-05)
(0.000223294 0 2.7027e-05)
(0.000147932 0 1.87202e-05)
(9.58344e-05 0 1.26402e-05)
(6.03239e-05 0 8.26259e-06)
(3.61898e-05 0 5.1214e-06)
(1.9308e-05 0 2.80142e-06)
(6.19784e-06 0 9.12808e-07)
(5.3945e-06 0 8.69859e-07)
(1.66773e-05 0 2.66355e-06)
(3.11949e-05 0 4.90376e-06)
(5.19959e-05 0 8.00755e-06)
(8.26421e-05 0 1.24276e-05)
(0.000127634 0 1.86909e-05)
(0.000192739 0 2.74116e-05)
(0.00028529 0 3.92857e-05)
(0.000414452 0 5.50612e-05)
(0.000591451 0 7.54811e-05)
(0.000829761 0 0.000101192)
(0.00114521 0 0.000132617)
(0.00155604 0 0.000169792)
(0.00208282 0 0.00021217)
(0.00274825 0 0.000258415)
(0.00357685 0 0.000306206)
(0.00459423 0 0.000352085)
(0.00582633 0 0.000391414)
(0.00729809 0 0.000418468)
(0.00903159 0 0.000426727)
(0.0110432 0 0.00040937)
(0.01334 0 0.000360006)
(0.0159151 0 0.000273578)
(0.0187428 0 0.000147404)
(0.0217709 0 -1.76884e-05)
(0.024913 0 -0.000216108)
(0.028041 0 -0.000436045)
(0.0309536 0 -0.000656203)
(0.0333607 0 -0.000843856)
(0.0345409 0 -0.000930656)
(5.46234e-06 0 9.04715e-07)
(1.68575e-05 0 2.76475e-06)
(3.14476e-05 0 5.07307e-06)
(5.22514e-05 0 8.24981e-06)
(8.27737e-05 0 1.27463e-05)
(0.000127422 0 1.90831e-05)
(0.000191821 0 2.78615e-05)
(0.000283095 0 3.97564e-05)
(0.000410117 0 5.54856e-05)
(0.000583715 0 7.57509e-05)
(0.000816828 0 0.000101148)
(0.00112459 0 0.000132042)
(0.00152431 0 0.000168405)
(0.00203542 0 0.000209637)
(0.00267917 0 0.00025437)
(0.00347825 0 0.000300292)
(0.00445591 0 0.000344023)
(0.0056352 0 0.000381112)
(0.00703772 0 0.000406182)
(0.00868178 0 0.00041327)
(0.0105799 0 0.000396372)
(0.0127342 0 0.000350212)
(0.015134 0 0.00027118)
(0.0177512 0 0.000158332)
(0.020535 0 1.44245e-05)
(0.0234017 0 -0.000152856)
(0.0262524 0 -0.000330966)
(0.0289394 0 -0.00049956)
(0.0312469 0 -0.00062888)
(0.0327958 0 -0.000673041)
(5.52201e-06 0 9.35782e-07)
(1.70103e-05 0 2.8539e-06)
(3.16389e-05 0 5.21852e-06)
(5.23824e-05 0 8.44971e-06)
(8.26685e-05 0 1.29939e-05)
(0.000126782 0 1.9361e-05)
(0.000190163 0 2.81348e-05)
(0.000279669 0 3.99642e-05)
(0.000403798 0 5.55321e-05)
(0.000572866 0 7.54976e-05)
(0.000799134 0 0.000100408)
(0.00109684 0 0.000130577)
(0.00148216 0 0.000165939)
(0.00197304 0 0.000205877)
(0.00258896 0 0.000249051)
(0.00335048 0 0.000293259)
(0.00427799 0 0.000335314)
(0.00539106 0 0.0003711)
(0.00670734 0 0.000395765)
(0.0082408 0 0.000404082)
(0.0100006 0 0.000391015)
(0.0119825 0 0.000352479)
(0.0141704 0 0.000286297)
(0.0165333 0 0.000193035)
(0.0190229 0 7.67102e-05)
(0.021557 0 -5.38581e-05)
(0.0240225 0 -0.000184757)
(0.0262933 0 -0.000297691)
(0.0282113 0 -0.000367743)
(0.0294761 0 -0.000352663)
(5.56539e-06 0 9.61926e-07)
(1.71111e-05 0 2.92768e-06)
(3.17247e-05 0 5.33438e-06)
(5.23193e-05 0 8.59875e-06)
(8.22228e-05 0 1.31588e-05)
(0.000125567 0 1.95096e-05)
(0.000187563 0 2.82129e-05)
(0.000274743 0 3.98872e-05)
(0.000395148 0 5.51772e-05)
(0.000558485 0 7.46974e-05)
(0.000776195 0 9.89488e-05)
(0.00106146 0 0.000128207)
(0.0014291 0 0.000162384)
(0.00189535 0 0.000200879)
(0.00247756 0 0.000242432)
(0.00319425 0 0.000285038)
(0.00406243 0 0.000325786)
(0.00509774 0 0.000360988)
(0.00631353 0 0.000386426)
(0.00771816 0 0.000397697)
(0.00931836 0 0.000390758)
(0.011107 0 0.00036262)
(0.01306 0 0.000312269)
(0.0151445 0 0.000241286)
(0.0173078 0 0.000154549)
(0.0194751 0 6.06425e-05)
(0.0215419 0 -2.77971e-05)
(0.0233817 0 -9.44121e-05)
(0.0248386 0 -0.000118371)
(0.0256634 0 -7.03672e-05)
(5.58402e-06 0 9.81923e-07)
(1.71348e-05 0 2.98254e-06)
(3.16607e-05 0 5.41469e-06)
(5.19938e-05 0 8.68828e-06)
(8.13385e-05 0 1.32292e-05)
(0.000123641 0 1.95141e-05)
(0.000183843 0 2.80783e-05)
(0.000268091 0 3.95062e-05)
(0.000383904 0 5.4401e-05)
(0.000540279 0 7.33322e-05)
(0.000747737 0 9.67579e-05)
(0.00101827 0 0.000124923)
(0.00136519 0 0.000157735)
(0.00180279 0 0.000194633)
(0.00234573 0 0.00023445)
(0.00301064 0 0.000275458)
(0.00381191 0 0.000315118)
(0.00476029 0 0.000350174)
(0.00586559 0 0.000377089)
(0.00713261 0 0.000392269)
(0.00856005 0 0.000392596)
(0.0101381 0 0.00037608)
(0.0118426 0 0.000342445)
(0.0136375 0 0.000293773)
(0.0154704 0 0.000234904)
(0.0172704 0 0.000173587)
(0.0189438 0 0.000120475)
(0.0203744 0 8.87675e-05)
(0.0214222 0 9.3764e-05)
(0.0219082 0 0.000152069)
(5.57043e-06 0 9.94711e-07)
(1.70592e-05 0 3.01543e-06)
(3.14081e-05 0 5.45431e-06)
(5.13468e-05 0 8.71095e-06)
(7.99316e-05 0 1.31956e-05)
(0.000120891 0 1.93626e-05)
(0.000178856 0 2.77171e-05)
(0.000259539 0 3.88058e-05)
(0.000369867 0 5.31881e-05)
(0.000518058 0 7.13878e-05)
(0.000713622 0 9.38224e-05)
(0.000967276 0 0.000120714)
(0.00129075 0 0.00015198)
(0.00169645 0 0.000187126)
(0.00219708 0 0.000225147)
(0.00280532 0 0.000264486)
(0.0035326 0 0.000303005)
(0.00438739 0 0.000338022)
(0.00537532 0 0.00036662)
(0.00649734 0 0.000385948)
(0.00774803 0 0.000393668)
(0.00911383 0 0.000388459)
(0.0105699 0 0.000370529)
(0.0120798 0 0.000342035)
(0.0135937 0 0.000307303)
(0.0150466 0 0.000272806)
(0.0163573 0 0.000246906)
(0.0174286 0 0.000239289)
(0.01815 0 0.000259921)
(0.0184047 0 0.000317118)