/*--------------------------------*- C++ -*----------------------------------*\
| =========                 |                                                 |
| \\      /  F ield         | OpenFOAM: The Open Source CFD Toolbox           |
|  \\    /   O peration     | Version:  2012                                  |
|   \\  /    A nd           | Website:  www.openfoam.com                      |
|    \\/     M anipulation  |                                                 |
\*---------------------------------------------------------------------------*/
FoamFile
{
    version     2.0;
    format      ascii;
    class       volVectorField;
    location    "0.3";
    object      Force;
}
// * * * * * * * * * * * * * * * * * * * * * * * * * * * * * * * * * * * * * //

dimensions      [1 1 -2 0 0 0 0];


internalField   uniform (0 0 0);

boundaryField
{
    inlet
    {
        type            calculated;
        value           uniform (0 0 0);
    }
    outlet
    {
        type            calculated;
        value           uniform (0 0 0);
    }
    flap
    {
        type            calculated;
        value           nonuniform List<vector> 
33
(
(2.41126 1.69842e-18 -0.0620074)
(2.39105 3.37371e-21 -0.114839)
(2.36181 9.40395e-38 -0.151277)
(2.32664 1.56934e-18 -0.164823)
(2.28838 1.54982e-18 -0.163394)
(2.24528 -1.52538e-18 -0.151735)
(2.19633 -6.20269e-23 -0.129827)
(2.14192 -3.20278e-18 -0.100171)
(2.07772 -1.65387e-21 -0.0681812)
(1.99573 3.20069e-18 -0.038765)
(1.88462 2.78805e-22 -0.012824)
(1.72656 9.13683e-23 0.00860813)
(1.48499 1.61111e-18 0.021711)
(1.0731 1.61743e-18 0.0235548)
(0.236634 -1.62448e-18 0.0127224)
(-0.0376403 5.97577e-22 2.69721)
(-0.0413323 -2.06529e-19 2.43374)
(-0.0310336 1.32835e-22 1.9031)
(2.00302 -1.0162e-21 -0.0526358)
(2.02678 -6.75427e-22 -0.0980441)
(2.05929 -1.40526e-18 -0.132418)
(2.10123 1.43135e-18 -0.149199)
(2.15372 1.63759e-18 -0.154136)
(2.22142 1.48381e-22 -0.150506)
(2.30884 1.46715e-22 -0.1368)
(2.41787 -1.3429e-22 -0.113609)
(2.55297 -1.66581e-18 -0.0846437)
(2.71851 -1.66484e-18 -0.0541958)
(2.91194 1.66276e-18 -0.0223578)
(3.11011 -1.6587e-18 0.0108459)
(3.2636 1.65226e-18 0.0395219)
(3.31169 1.64564e-18 0.0557471)
(3.20575 1.63802e-18 0.0616598)
)
;
    }
    upperWall
    {
        type            calculated;
        value           uniform (0 0 0);
    }
    lowerWall
    {
        type            calculated;
        value           uniform (0 0 0);
    }
    frontAndBack
    {
        type            empty;
    }
}


// ************************************************************************* //
