/*--------------------------------*- C++ -*----------------------------------*\
| =========                 |                                                 |
| \\      /  F ield         | OpenFOAM: The Open Source CFD Toolbox           |
|  \\    /   O peration     | Version:  2012                                  |
|   \\  /    A nd           | Website:  www.openfoam.com                      |
|    \\/     M anipulation  |                                                 |
\*---------------------------------------------------------------------------*/
FoamFile
{
    version     2.0;
    format      ascii;
    class       surfaceScalarField;
    location    "0.3";
    object      meshPhi;
}
// * * * * * * * * * * * * * * * * * * * * * * * * * * * * * * * * * * * * * //

dimensions      [0 3 -1 0 0 0 0];
oriented        oriented;


internalField   nonuniform List<scalar> 
5457
(
5.47563e-06
6.55745e-08
1.15255e-05
1.97789e-07
1.92406e-05
3.46094e-07
2.96935e-05
5.30239e-07
4.39714e-05
7.66389e-07
6.32294e-05
1.06741e-06
8.86797e-05
1.44269e-06
0.000121545
1.89708e-06
0.000162979
2.42963e-06
0.000213966
3.03252e-06
0.000275192
3.69068e-06
0.0003469
4.3824e-06
0.00042873
5.08112e-06
0.000519533
5.75821e-06
0.000617187
6.38661e-06
0.000718405
6.94513e-06
0.00081859
7.42437e-06
0.000911794
7.83613e-06
0.000990849
8.23029e-06
0.00104777
8.72352e-06
0.00107445
9.54276e-06
0.00106377
1.10798e-05
0.0010108
1.39398e-05
0.000914259
1.89471e-05
0.000777745
2.70381e-05
0.000610722
3.89412e-05
0.00042932
5.45266e-05
0.000257363
7.18613e-05
0.000129517
8.66991e-05
9.43398e-05
5.31998e-06
1.29255e-07
1.12282e-05
3.9018e-07
1.87893e-05
6.83481e-07
2.90575e-05
1.04818e-06
4.31154e-05
1.51637e-06
6.21186e-05
2.11372e-06
8.72866e-05
2.85898e-06
0.000119857
3.76181e-06
0.000161009
4.82014e-06
0.000211763
6.01783e-06
0.000272857
7.3238e-06
0.000344609
8.69313e-06
0.000426753
1.00705e-05
0.000518271
1.13957e-05
0.000617203
1.2611e-05
0.000720458
1.36694e-05
0.000823665
1.45458e-05
0.000921115
1.52544e-05
0.00100587
1.58799e-05
0.00107016
1.66309e-05
0.00110602
1.79239e-05
0.00110639
2.04914e-05
0.0010663
2.5488e-05
0.000984298
3.45301e-05
0.000863617
4.95483e-05
0.000713066
7.22541e-05
0.000547713
0.000102932
0.000390146
0.000138399
0.000275036
0.000170384
0.000186951
5.20318e-06
1.90892e-07
1.10068e-05
5.7664e-07
1.84552e-05
1.01094e-06
2.85918e-05
1.55139e-06
4.24984e-05
2.24549e-06
6.13373e-05
3.13127e-06
8.63428e-05
4.23638e-06
0.000118778
5.57462e-06
0.000159864
7.14173e-06
0.000210681
8.91165e-06
0.00027205
1.08348e-05
0.000344405
1.28394e-05
0.000427641
1.48366e-05
0.000520949
1.67285e-05
0.000622637
1.84193e-05
0.000729947
1.98284e-05
0.000838898
2.09061e-05
0.000944217
2.16579e-05
0.00103943
2.21875e-05
0.00111719
2.27697e-05
0.00116995
2.3968e-05
0.00119089
2.6792e-05
0.00117519
3.2865e-05
0.00112128
4.45245e-05
0.00103198
6.47107e-05
0.000915248
9.63856e-05
0.000784426
0.00014101
0.000659159
0.000195425
0.00057074
0.000247738
0.000279594
5.14662e-06
2.50501e-07
1.09003e-05
7.57021e-07
1.82971e-05
1.32772e-06
2.83791e-05
2.03793e-06
4.22331e-05
2.94977e-06
6.10339e-05
4.11286e-06
8.60382e-05
5.56276e-06
0.000118545
7.31615e-06
0.000159828
9.36475e-06
0.000211046
1.16699e-05
0.00027313
1.41598e-05
0.000346668
1.67304e-05
0.000431761
1.92519e-05
0.000527874
2.15801e-05
0.000633669
2.35711e-05
0.00074683
2.50998e-05
0.000863906
2.60817e-05
0.00098023
2.65034e-05
0.00108999
2.64739e-05
0.00118651
2.63122e-05
0.00126287
2.66863e-05
0.00131279
2.88063e-05
0.00133175
3.46404e-05
0.00131829
4.70689e-05
0.00127506
6.98176e-05
0.00120946
0.000106875
0.00113364
0.000160801
0.00106428
0.000228859
0.00102574
0.000296736
0.000349757
5.099e-06
3.07666e-07
1.08094e-05
9.29963e-07
1.81634e-05
1.63121e-06
2.82038e-05
2.50344e-06
4.20255e-05
3.6224e-06
6.08193e-05
5.04823e-06
8.58702e-05
6.82319e-06
0.000118521
8.96521e-06
0.000160113
1.14598e-05
0.000211898
1.42526e-05
0.000274944
1.72447e-05
0.000350024
2.02936e-05
0.00043749
2.32201e-05
0.000537144
2.58226e-05
0.000648078
2.78974e-05
0.000768516
2.92624e-05
0.000895657
2.97867e-05
0.00102559
2.94282e-05
0.00115333
2.82905e-05
0.00127306
2.67162e-05
0.00137867
2.54344e-05
0.00146458
2.57649e-05
0.00152676
2.98529e-05
0.00156394
4.08407e-05
0.00157868
6.27936e-05
0.00157803
0.000100031
0.0015735
0.000155163
0.0015797
0.000224557
0.00161215
0.000291349
0.000337353
5.05911e-06
3.62014e-07
1.07328e-05
1.09427e-06
1.80517e-05
1.91912e-06
2.80615e-05
2.94408e-06
4.18667e-05
4.25737e-06
6.06772e-05
5.92841e-06
8.581e-05
8.0047e-06
0.000118659
1.05036e-05
0.000160638
1.34022e-05
0.000213108
1.66267e-05
0.000277289
2.00467e-05
0.000354162
2.34741e-05
0.000444364
2.66715e-05
0.00054807
2.93687e-05
0.000664858
3.12888e-05
0.000793561
3.21805e-05
0.000932114
3.18555e-05
0.00107746
3.0235e-05
0.00122556
2.74109e-05
0.00137159
2.37375e-05
0.00151037
1.99692e-05
0.00163712
1.74478e-05
0.0017483
1.83158e-05
0.00184272
2.56616e-05
0.00192241
4.34039e-05
0.00199319
7.55304e-05
0.00206428
0.000123954
0.00214554
0.000183799
0.00224047
0.000237155
0.000261434
5.02612e-06
4.13246e-07
1.06693e-05
1.24897e-06
1.79598e-05
2.18958e-06
2.79474e-05
3.35671e-06
4.1747e-05
4.84975e-06
6.05892e-05
6.74601e-06
8.58251e-05
9.09672e-06
0.000118901
1.19169e-05
0.000161311
1.51725e-05
0.00021453
1.87678e-05
0.000279937
2.25358e-05
0.000358732
2.6237e-05
0.000451853
2.95668e-05
0.000559869
3.21763e-05
0.000682871
3.37035e-05
0.000820331
3.38157e-05
0.000970965
3.22588e-05
0.00113262
2.89133e-05
0.00130226
2.38609e-05
0.00147609
1.74685e-05
0.00164993
1.04998e-05
0.00181975
4.2571e-06
0.00198241
7.27856e-07
0.00213639
2.66035e-06
0.00228239
1.34041e-05
0.00242332
3.62092e-05
0.00256301
7.24311e-05
0.00270193
0.000117798
0.00282912
0.000157717
0.000178197
4.99953e-06
4.61148e-07
1.06178e-05
1.39338e-06
1.78854e-05
2.44122e-06
2.78563e-05
3.73901e-06
4.16563e-05
5.39584e-06
6.05363e-05
7.49552e-06
8.58814e-05
1.00914e-05
0.000119191
1.31945e-05
0.000162038
1.67578e-05
0.000216009
2.06604e-05
0.000282644
2.46959e-05
0.000363364
2.85679e-05
0.000459401
3.18984e-05
0.000571719
3.42507e-05
0.000700916
3.51685e-05
0.000847102
3.42291e-05
0.00100977
3.1107e-05
0.00118766
2.56437e-05
0.00137873
1.79207e-05
0.00158021
8.33433e-06
0.00178884
-2.32868e-06
0.00200126
-1.28207e-05
0.00221444
-2.13937e-05
0.00242608
-2.58483e-05
0.00263464
-2.37722e-05
0.00283881
-1.31008e-05
0.00303543
6.81602e-06
0.00321517
3.32931e-05
0.00335662
5.77035e-05
7.58648e-05
4.97906e-06
5.05607e-07
1.05776e-05
1.52709e-06
1.78267e-05
2.67326e-06
2.7784e-05
4.08955e-06
4.15853e-05
5.89335e-06
6.05004e-05
8.17347e-06
8.59459e-05
1.0984e-05
0.000119471
1.43304e-05
0.000162721
1.8151e-05
0.000217393
2.22985e-05
0.000285173
2.65245e-05
0.000367691
3.04729e-05
0.000466459
3.36882e-05
0.000582807
3.56412e-05
0.000717812
3.57755e-05
0.000872183
3.35737e-05
0.00104613
2.86382e-05
0.00123925
2.07779e-05
0.00145042
1.00923e-05
0.0016778
-2.96161e-06
0.00191895
-1.75315e-05
0.00217098
-3.2381e-05
0.00243071
-4.59822e-05
0.00269452
-5.67349e-05
0.00295795
-6.33576e-05
0.00321461
-6.54216e-05
0.00345446
-6.38337e-05
0.00366148
-6.10289e-05
0.00381198
-6.07044e-05
-6.25405e-05
4.96471e-06
5.46624e-07
1.05486e-05
1.65009e-06
1.77824e-05
2.88552e-06
2.77271e-05
4.40791e-06
4.15263e-05
6.34146e-06
6.04658e-05
8.7786e-06
8.59892e-05
1.17728e-05
0.000119689
1.53229e-05
0.000163276
1.93518e-05
0.000218541
2.3685e-05
0.000287304
2.80316e-05
0.000371378
3.19759e-05
0.000472521
3.49843e-05
0.000592391
3.64341e-05
0.000732486
3.56684e-05
0.000894041
3.20756e-05
0.00107791
2.51897e-05
0.00128443
1.47974e-05
0.00151328
1.03728e-06
0.00176344
-1.5535e-05
0.00203315
-3.39411e-05
0.00231985
-5.28674e-05
0.00261997
-7.08815e-05
0.00292833
-8.68177e-05
0.00323703
-0.000100339
0.00353397
-0.000112547
0.00380179
-0.000126184
0.00401858
-0.00014457
0.00416231
-0.000168265
-0.000197452
4.95681e-06
5.84317e-07
1.05311e-05
1.76268e-06
1.77527e-05
3.07848e-06
2.7684e-05
4.69469e-06
4.14743e-05
6.74089e-06
6.04208e-05
9.31182e-06
8.59883e-05
1.24593e-05
0.000119804
1.61746e-05
0.000163631
2.03652e-05
0.000219336
2.483e-05
0.000288852
2.92375e-05
0.000374141
3.31144e-05
0.000477165
3.58526e-05
0.000599851
3.67403e-05
0.000744043
3.50249e-05
0.000911412
3.00065e-05
0.00110334
2.11582e-05
0.00132077
8.25627e-06
0.00156405
-8.50248e-06
0.00183284
-2.84314e-05
0.00212595
-5.03708e-05
0.00244108
-7.28333e-05
0.00277437
-9.43125e-05
0.00311921
-0.000113774
0.00346453
-0.0001313
0.00379271
-0.000148695
0.00407846
-0.000169471
0.00429187
-0.000196949
0.00441068
-0.000229225
-0.00026141
4.95611e-06
6.18915e-07
1.05264e-05
1.86554e-06
1.77388e-05
3.25323e-06
2.76554e-05
4.95144e-06
4.14276e-05
7.09374e-06
6.03593e-05
9.77599e-06
8.59287e-05
1.30474e-05
0.000119786
1.68915e-05
0.000163733
2.12009e-05
0.000219693
2.57496e-05
0.00028968
3.01689e-05
0.000375768
3.39336e-05
0.000480072
3.63684e-05
0.000604723
3.66815e-05
0.000751823
3.40348e-05
0.000923371
2.76514e-05
0.00112114
1.69544e-05
0.00134655
1.72052e-06
0.00160047
-1.77836e-05
0.00188307
-4.07241e-05
0.00219366
-6.57313e-05
0.00253031
-9.10848e-05
0.00288916
-0.000115079
0.003263
-0.000136547
0.00363905
-0.000155468
0.00399618
-0.000173404
0.00430301
-0.00019324
0.00452151
-0.000217083
0.00462543
-0.000241805
-0.000257672
4.96377e-06
6.50758e-07
1.05367e-05
1.95966e-06
1.77438e-05
3.41144e-06
2.76445e-05
5.18058e-06
4.1389e-05
7.40337e-06
6.02818e-05
1.01757e-05
8.58059e-05
1.35435e-05
0.000119623
1.74825e-05
0.000163556
2.18716e-05
0.000219561
2.64629e-05
0.000289702
3.08557e-05
0.000376126
3.44809e-05
0.000481046
3.66067e-05
0.000606723
3.63751e-05
0.000755427
3.28782e-05
0.000929369
2.52774e-05
0.00113059
1.29598e-05
0.00136081
-4.28896e-06
0.00162126
-2.61304e-05
0.00191253
-5.15886e-05
0.00223434
-7.9092e-05
0.00258522
-0.000106689
0.0029618
-0.000132446
0.00335745
-0.000154974
0.00375994
-0.000173918
0.00414827
-0.000190164
0.0044897
-0.000205364
0.00474086
-0.000220319
0.00486551
-0.000232809
-0.000236251
4.98148e-06
6.8028e-07
1.05653e-05
2.04633e-06
1.77724e-05
3.55527e-06
2.76576e-05
5.38529e-06
4.13657e-05
7.6742e-06
6.01958e-05
1.05169e-05
8.56267e-05
1.39555e-05
0.000119318
1.79583e-05
0.000163096
2.23919e-05
0.000218927
2.69905e-05
0.000288893
3.13276e-05
0.00037517
3.48002e-05
0.000480015
3.66341e-05
0.000605746
3.59222e-05
0.000754714
3.17066e-05
0.00092923
2.31068e-05
0.00113146
9.48943e-06
0.0013633
-9.34389e-06
0.00162617
-3.299e-05
0.00192091
-6.03555e-05
0.00224758
-8.97088e-05
0.00260521
-0.000118921
0.00299127
-0.000145895
0.0034006
-0.000169086
0.00382345
-0.000187904
0.00424265
-0.000202705
0.0046296
-0.00021409
0.00494068
-0.000221607
0.00512423
-0.000223673
-0.000220981
5.01163e-06
7.08258e-07
1.06168e-05
2.12782e-06
1.78315e-05
3.68849e-06
2.7704e-05
5.57097e-06
4.13695e-05
7.91348e-06
6.01156e-05
1.0809e-05
8.54071e-05
1.42953e-05
0.000118889
1.83336e-05
0.000162372
2.27803e-05
0.000217809
2.7355e-05
0.000287269
3.16133e-05
0.000372916
3.4929e-05
0.000476997
3.6501e-05
0.000601824
3.53933e-05
0.00074974
3.06206e-05
0.000923054
2.12833e-05
0.00112394
6.74488e-06
0.0013543
-1.31713e-05
0.00161562
-3.80104e-05
0.00190884
-6.65987e-05
0.00223418
-9.71069e-05
0.00259103
-0.000127313
0.00297767
-0.000155057
0.00339056
-0.000178781
0.00382296
-0.000197914
0.00426287
-0.000212831
0.00468897
-0.000224216
0.00506424
-0.000232121
0.00532459
-0.000236353
-0.000214745
0.000143938
-0.000136293
0.000328986
-0.000147673
0.000570883
-0.000155625
0.000812292
-0.000154895
0.00101697
-0.000145516
0.00116799
-0.00012961
0.00126083
-0.000110328
0.00129813
-9.03279e-05
0.00128647
-7.14125e-05
0.00123447
-5.46158e-05
0.00115166
-4.03925e-05
0.00104754
-2.88088e-05
0.000930953
-1.96959e-05
0.000809583
-1.27618e-05
0.000689656
-7.66558e-06
0.000575875
-4.06278e-06
0.000471495
-1.63259e-06
0.00037851
-9.18223e-08
0.000297868
7.99036e-07
0.000229685
1.23505e-06
0.00017345
1.36946e-06
0.000128196
1.31821e-06
9.26616e-05
1.16541e-06
6.5431e-05
9.69052e-07
4.5048e-05
7.66394e-07
3.01036e-05
5.78788e-07
1.92877e-05
4.15788e-07
1.14014e-05
2.78343e-07
5.32686e-06
1.61007e-07
5.34907e-08
0.000295709
-0.000276949
0.000483347
-0.000294119
0.000714512
-0.000303839
0.00093692
-0.000299304
0.00112013
-0.000279965
0.00125053
-0.000249209
0.00132506
-0.000212377
0.00134683
-0.000174189
0.00132238
-0.000137973
0.00126012
-0.000105698
0.00116925
-7.82701e-05
0.00105898
-5.58605e-05
0.000937834
-3.81837e-05
0.0008132
-2.47058e-05
0.000691037
-1.47867e-05
0.000575806
-7.77057e-06
0.000470562
-3.03992e-06
0.00037713
-4.60081e-08
0.000296327
1.67762e-06
0.00022817
2.51215e-06
0.000172071
2.75766e-06
0.00012701
2.64147e-06
9.16886e-05
2.32856e-06
6.46648e-05
1.93259e-06
4.44688e-05
1.52643e-06
2.96856e-05
1.15172e-06
1.90052e-05
8.26875e-07
1.1233e-05
5.53406e-07
5.25491e-06
3.20199e-07
1.06433e-07
0.000602541
-0.000427842
0.000787719
-0.000438256
0.000992851
-0.000439382
0.00117684
-0.000425626
0.001319
-0.000395416
0.00141082
-0.00035159
0.00145141
-0.00030013
0.00144448
-0.000246861
0.00139642
-0.000196142
0.00131514
-0.000150689
0.00120925
-0.00011184
0.00108736
-7.99311e-05
0.000957402
-5.46469e-05
0.000826249
-3.5299e-05
0.000699386
-2.10231e-05
0.000580864
-1.09109e-05
0.000473391
-4.09281e-06
0.00037851
2.13602e-07
0.000296813
2.67898e-06
0.000228145
3.85473e-06
0.000171789
4.17666e-06
0.000126631
3.97573e-06
9.13055e-05
3.49238e-06
6.43265e-05
2.89222e-06
4.41956e-05
2.28128e-06
2.94813e-05
1.71986e-06
1.88658e-05
1.23429e-06
1.11512e-05
8.26079e-07
5.22136e-06
4.78181e-07
1.59038e-07
0.00107437
-0.00056909
0.00123266
-0.000558709
0.00138742
-0.000547358
0.00151231
-0.000523698
0.00159604
-0.000484435
0.00163463
-0.000430981
0.00162896
-0.000369027
0.00158303
-0.000304779
0.00150282
-0.000243199
0.00139555
-0.000187571
0.00126901
-0.000139647
0.00113098
-9.99973e-05
0.000988652
-6.83832e-05
0.000848194
-4.40705e-05
0.000714474
-2.60662e-05
0.000591009
-1.32867e-05
0.000480052
-4.66853e-06
0.000382773
7.61008e-07
0.000299468
3.8461e-06
0.000229749
5.28667e-06
0.000172727
5.63907e-06
0.00012716
5.32728e-06
9.15926e-05
4.65989e-06
6.44765e-05
3.84948e-06
4.42716e-05
3.03188e-06
2.95201e-05
2.28396e-06
1.88872e-05
1.63866e-06
1.11648e-05
1.09686e-06
5.22916e-06
6.35238e-07
2.11385e-07
0.00168042
-0.000637598
0.00178157
-0.000626626
0.00186315
-0.000612332
0.00191295
-0.000585349
0.00192619
-0.00054216
0.00190185
-0.000484013
0.00184178
-0.000416452
0.00174994
-0.000345812
0.00163172
-0.000277409
0.00149353
-0.000214962
0.00134226
-0.00016062
0.0011848
-0.000115256
0.00102749
-7.88088e-05
0.000875685
-5.06081e-05
0.000733555
-2.96335e-05
0.000603984
-1.47099e-05
0.000488691
-4.6464e-06
0.000388401
1.67062e-06
0.000303052
5.22253e-06
0.00023198
6.83164e-06
0.000174083
7.15633e-06
0.000127966
6.7005e-06
9.20617e-05
5.83175e-06
6.47452e-05
4.8033e-06
4.44245e-05
3.77662e-06
2.96076e-05
2.84242e-06
1.89383e-05
2.03872e-06
1.11947e-05
1.36483e-06
5.24383e-06
7.90793e-07
2.6327e-07
0.00232802
-0.000638945
0.00236523
-0.000645306
0.00236922
-0.000636215
0.00234057
-0.000611632
0.00228041
-0.000569179
0.00219031
-0.000510907
0.002073
-0.000442303
0.00193241
-0.00036962
0.00177347
-0.000298299
0.00160188
-0.000232351
0.0014237
-0.000174285
0.00124496
-0.000125304
0.00107113
-8.56046e-05
0.000906758
-5.46735e-05
0.00075526
-3.15557e-05
0.000618851
-1.50662e-05
0.000498674
-3.95307e-06
0.000394971
2.98672e-06
0.00030729
6.83292e-06
0.00023466
8.50179e-06
0.000175747
8.73309e-06
0.000128981
8.09593e-06
9.26725e-05
7.00652e-06
6.51095e-05
5.75159e-06
4.46414e-05
4.51342e-06
2.97374e-05
3.39355e-06
1.90161e-05
2.43317e-06
1.124e-05
1.62911e-06
5.26544e-06
9.44326e-07
3.14516e-07
0.00293395
-0.000638167
0.00291987
-0.000643638
0.0028576
-0.000635324
0.00275874
-0.00061195
0.00263088
-0.000571338
0.00247865
-0.000515407
0.00230616
-0.000448929
0.0021178
-0.000377588
0.00191842
-0.00030661
0.0017133
-0.000240079
0.00150788
-0.00018075
0.00130743
-0.000130135
0.00111665
-8.8717e-05
0.000939323
-5.62044e-05
0.000778119
-3.17795e-05
0.000634595
-1.4317e-05
0.000509311
-2.5642e-06
0.000402024
4.72226e-06
0.000311881
8.68228e-06
0.000237597
1.02972e-05
0.000177596
1.03668e-05
0.00013013
9.51004e-06
9.33798e-05
8.18062e-06
6.55434e-05
6.6912e-06
4.4908e-05
5.2398e-06
2.99019e-05
3.93549e-06
1.91173e-05
2.82075e-06
1.12994e-05
1.88889e-06
5.29373e-06
1.09538e-06
3.6497e-07
0.00347268
-0.000634513
0.00341458
-0.00063142
0.00329823
-0.000620117
0.0031414
-0.000595691
0.00295605
-0.000556198
0.00274943
-0.00050316
0.00252729
-0.000440306
0.00229502
-0.000372386
0.00205787
-0.000304053
0.00182105
-0.000239193
0.00158964
-0.000180629
0.00136836
-0.000130093
0.00116123
-8.83338e-05
0.000971335
-5.53018e-05
0.000800682
-3.03607e-05
0.000650203
-1.24957e-05
0.00051991
-5.02466e-07
0.000409093
6.85992e-06
0.000316516
1.07565e-05
0.00024059
1.22062e-05
0.000179504
1.20481e-05
0.000131335
1.09353e-05
9.41377e-05
9.34833e-06
6.60205e-05
7.61798e-06
4.52099e-05
5.95284e-06
3.00938e-05
4.46631e-06
1.92384e-05
3.20022e-06
1.13718e-05
2.14341e-06
5.32841e-06
1.24356e-06
4.14507e-07
0.0039298
-0.000601916
0.00383338
-0.000604885
0.00367503
-0.000595252
0.00347346
-0.000570399
0.00324221
-0.000531145
0.00299048
-0.000480291
0.00272592
-0.0004211
0.00245528
-0.000357367
0.00218463
-0.000292939
0.0019194
-0.000231228
0.00166454
-0.000174912
0.00142434
-0.000125801
0.00120231
-8.48417e-05
0.00100093
-5.2206e-05
0.000821606
-2.74506e-05
0.00066473
-9.70038e-06
0.000529818
2.16649e-06
0.000415737
9.35437e-06
0.000320904
1.30236e-05
0.00024345
1.4206e-05
0.000181351
1.37606e-05
0.000132523
1.23604e-05
9.49027e-05
1.05019e-05
6.65161e-05
8.52675e-06
4.55338e-05
6.64922e-06
3.03066e-05
4.98394e-06
1.93765e-05
3.57038e-06
1.14562e-05
2.39203e-06
5.36925e-06
1.38853e-06
4.63026e-07
0.00427375
-0.000564031
0.00416131
-0.000581717
0.00398007
-0.000573156
0.00374832
-0.000545403
0.00348242
-0.000503592
0.0031946
-0.000452728
0.00289504
-0.000395941
0.00259224
-0.000336028
0.00229321
-0.000275808
0.0020038
-0.000217969
0.00172891
-0.000164816
0.00147253
-0.000118073
0.00123773
-7.87761e-05
0.00102649
-4.72672e-05
0.000839728
-2.32795e-05
0.000677351
-6.08381e-06
0.00053846
5.33978e-06
0.000421564
1.21355e-05
0.000324782
1.54355e-05
0.000246008
1.62638e-05
0.000183032
1.54822e-05
0.00013363
1.37706e-05
9.56369e-05
1.16317e-05
6.70092e-05
9.41145e-06
4.5869e-05
7.32526e-06
3.05353e-05
5.48626e-06
1.95298e-05
3.93006e-06
1.1552e-05
2.63415e-06
5.41627e-06
1.53004e-06
5.10453e-07
0.00450809
-0.000580755
0.00440588
-0.000586857
0.00421908
-0.000567421
0.00396792
-0.000528822
0.0036754
-0.00047939
0.00335856
-0.000425189
0.00303059
-0.000368719
0.0027017
-0.000311499
0.00237977
-0.000255089
0.00207093
-0.000201226
0.00178001
-0.000151644
0.00151074
-0.00010782
0.0012658
-7.07629e-05
0.00104676
-4.09106e-05
0.000854109
-1.8135e-05
0.000687389
-1.84093e-06
0.000545362
8.885e-06
0.00042625
1.51133e-05
0.000327937
1.79312e-05
0.000248125
1.83384e-05
0.000184459
1.71857e-05
0.000134602
1.51481e-05
9.63104e-05
1.27267e-05
6.7484e-05
1.02653e-05
4.62078e-05
7.977e-06
3.0777e-05
5.97111e-06
1.96977e-05
4.27817e-06
1.16596e-05
2.86929e-06
5.46983e-06
1.66789e-06
5.56742e-07
0.00469979
-0.000629187
0.00460682
-0.000613938
0.00441217
-0.00057566
0.00414087
-0.000520766
0.0038236
-0.0004601
0.00348173
-0.000399959
0.00313056
-0.000341924
0.00278122
-0.000286134
0.00244188
-0.000232807
0.0021186
-0.000182628
0.00181599
-0.000136642
0.00153746
-9.59586e-05
0.00128532
-6.14587e-05
0.0010608
-3.35979e-05
0.000864064
-1.23381e-05
0.000694348
2.80681e-06
0.000550172
1.26501e-05
0.000429554
1.81841e-05
0.000330205
2.04405e-05
0.000249697
2.03832e-05
0.000185567
1.88404e-05
0.000135403
1.64736e-05
9.69035e-05
1.37747e-05
6.79314e-05
1.10812e-05
4.65473e-05
8.60052e-06
3.10316e-05
6.43647e-06
1.98814e-05
4.61379e-06
1.17803e-05
3.09709e-06
5.53075e-06
1.80201e-06
6.01884e-07
0.00491197
-0.000662693
0.00480039
-0.000637004
0.00457645
-0.000583701
0.00427415
-0.000514434
0.00392915
-0.000443143
0.0035641
-0.000376791
0.00319408
-0.000316485
0.00282964
-0.000261332
0.00247833
-0.000210421
0.00214569
-0.000163487
0.00183586
-0.000120891
0.00155185
-8.33321e-05
0.00129563
-5.1495e-05
0.0010681
-2.57893e-05
0.000869185
-6.2174e-06
0.000697925
7.62804e-06
0.000552675
1.64744e-05
0.000431325
2.12377e-05
0.000331491
2.28892e-05
0.000250663
2.2349e-05
0.000186323
2.04147e-05
0.000136015
1.77271e-05
9.74088e-05
1.47639e-05
6.835e-05
1.18523e-05
4.68892e-05
9.19214e-06
3.13022e-05
6.88058e-06
2.00839e-05
4.93626e-06
1.19165e-05
3.31741e-06
5.60038e-06
1.93242e-06
6.45914e-07
0.00514797
-0.000672065
0.00498354
-0.000642673
0.00470715
-0.000580224
0.00436411
-0.000502212
0.00398985
-0.000424334
0.0036045
-0.000353962
0.00322057
-0.000292184
0.00284665
-0.000237662
0.00248893
-0.000188826
0.00215203
-0.000144748
0.00183946
-0.00010525
0.00155375
-7.0656e-05
0.00129654
-4.14358e-05
0.00106849
-1.79123e-05
0.000869346
-8.75097e-08
0.000698019
1.23968e-05
0.000552795
2.0199e-05
0.000431515
2.41644e-05
0.000331762
2.52033e-05
0.000251008
2.4187e-05
0.00018672
2.18772e-05
0.000136439
1.88893e-05
9.78321e-05
1.56827e-05
6.87473e-05
1.25724e-05
4.72412e-05
9.74877e-06
3.15955e-05
7.30217e-06
2.03107e-05
5.24524e-06
1.2072e-05
3.53035e-06
5.68069e-06
2.05931e-06
6.88918e-07
0.00533065
-0.000656395
0.00510177
-0.000617814
0.0047719
-0.000555008
0.00439393
-0.000476995
0.00399788
-0.00039922
0.00359978
-0.000329009
0.00320912
-0.000267908
0.00283232
-0.000214846
0.00247409
-0.000168201
0.00213809
-0.000126802
0.00182717
-9.01678e-05
0.00154345
-5.83541e-05
0.00128827
-3.16427e-05
0.00106211
-1.02551e-05
0.000864619
5.83295e-06
0.000694676
1.69541e-05
0.000550564
2.37123e-05
0.000430146
2.68892e-05
0.000331039
2.73343e-05
0.00025075
2.58677e-05
0.000186779
2.32115e-05
0.000136695
1.99522e-05
9.81913e-05
1.65289e-05
6.91394e-05
1.3242e-05
4.76167e-05
1.02726e-05
3.19225e-05
7.70393e-06
2.05699e-05
5.54334e-06
1.22523e-05
3.73802e-06
5.77447e-06
2.18407e-06
7.31376e-07
5.24682e-06
7.34721e-07
1.10984e-05
2.20424e-06
1.86034e-05
3.81139e-06
2.88404e-05
5.73823e-06
4.2974e-05
8.12236e-06
6.23215e-05
1.10541e-05
8.83794e-05
1.45666e-05
0.000122826
1.86147e-05
0.000167507
2.30466e-05
0.00022441
2.75727e-05
0.000295638
3.17379e-05
0.000383386
3.49054e-05
0.000489924
3.62639e-05
0.000617582
3.48697e-05
0.000768709
2.97338e-05
0.000945602
1.99601e-05
0.0011504
4.92586e-06
0.00138496
-1.55208e-05
0.00165074
-4.08914e-05
0.00194864
-6.99773e-05
0.00227885
-0.000100921
0.00264078
-0.000131491
0.003033
-0.000159555
0.00345288
-0.000183639
0.00389523
-0.000203337
0.00435114
-0.000219378
0.00480434
-0.000233296
0.00522472
-0.00024698
0.00554616
-0.00026302
-0.000289359
0.00577498
5.42148e-06
7.58478e-07
1.14479e-05
2.2722e-06
1.91437e-05
3.91857e-06
2.95999e-05
5.87978e-06
4.39884e-05
8.29189e-06
6.36303e-05
1.12421e-05
9.00217e-05
1.47592e-05
0.000124836
1.87931e-05
0.000169908
2.3187e-05
0.000227207
2.76477e-05
0.000298809
3.17188e-05
0.000386868
3.47663e-05
0.000493598
3.59865e-05
0.000621249
3.4449e-05
0.000772074
2.91845e-05
0.000948234
1.9321e-05
0.00115169
4.26254e-06
0.0013841
-1.61189e-05
0.0016467
-4.13237e-05
0.00194021
-7.01572e-05
0.00226455
-0.000100804
0.0026187
-0.000131092
0.00300091
-0.000158963
0.0034086
-0.000183037
0.00383664
-0.000203008
0.00427615
-0.000219738
0.00471226
-0.000235041
0.00511877
-0.000251383
0.00544217
-0.000272347
-0.000304019
0.00561348
5.59401e-06
7.78557e-07
1.17896e-05
2.3289e-06
1.96626e-05
4.00558e-06
3.03106e-05
5.98965e-06
4.49058e-05
8.41487e-06
6.4763e-05
1.13651e-05
9.13647e-05
1.48653e-05
0.000126362
1.88622e-05
0.000171558
2.31981e-05
0.000228877
2.75823e-05
0.000300334
3.15671e-05
0.000388002
3.45345e-05
0.000493986
3.5706e-05
0.000620397
3.41856e-05
0.00076934
2.90444e-05
0.000942763
1.94524e-05
0.00114233
4.85081e-06
0.00136936
-1.48674e-05
0.00162473
-3.92104e-05
0.00190888
-6.70426e-05
0.00222131
-9.66612e-05
0.00256024
-0.000126011
0.00292305
-0.000153128
0.00330646
-0.000176675
0.00370461
-0.000196301
0.00410682
-0.000212674
0.00449706
-0.000227284
0.00485107
-0.000242159
0.00512763
-0.000259856
-0.000280508
0.00525641
5.75571e-06
7.94255e-07
1.21055e-05
2.37235e-06
2.01308e-05
4.06926e-06
3.09291e-05
6.06374e-06
4.56642e-05
8.48648e-06
6.56338e-05
1.14179e-05
9.2293e-05
1.488e-05
0.000127253
1.88185e-05
0.000172264
2.30784e-05
0.000229179
2.73783e-05
0.00029992
3.1288e-05
0.000386442
3.42186e-05
0.000490692
3.54331e-05
0.000614576
3.40889e-05
0.000760007
2.93168e-05
0.000928704
2.03424e-05
0.00112192
6.65115e-06
0.00134056
-1.18465e-05
0.00158501
-3.46904e-05
0.00185524
-6.08321e-05
0.00215033
-8.87114e-05
0.0024677
-0.000116444
0.0028038
-0.000142198
0.00315419
-0.000164656
0.00351193
-0.000183302
0.00386536
-0.000198467
0.00419752
-0.000211117
0.00448533
-0.000222488
0.00469399
-0.000233632
-0.000242872
0.0047745
5.89831e-06
8.04901e-07
1.23786e-05
2.40062e-06
2.05209e-05
4.10667e-06
3.14147e-05
6.09821e-06
4.62063e-05
8.50227e-06
6.61648e-05
1.13958e-05
9.27033e-05
1.47988e-05
0.000127377
1.8658e-05
0.00017186
2.28251e-05
0.000227911
2.70336e-05
0.000297333
3.08797e-05
0.000381928
3.38144e-05
0.000483454
3.51558e-05
0.000603564
3.4129e-05
0.000743909
2.99403e-05
0.000905939
2.18871e-05
0.00109051
9.50582e-06
0.00129804
-7.28407e-06
0.00152848
-2.80738e-05
0.00178116
-5.19232e-05
0.00205451
-7.7428e-05
0.00234547
-0.000102904
0.00264977
-0.00012669
0.00296192
-0.000147497
0.00327409
-0.00016465
0.0035747
-0.000178136
0.00384753
-0.000188425
0.00407138
-0.000196121
0.00421838
-0.000201513
-0.000203298
0.00426128
6.01388e-06
8.1e-07
1.25927e-05
2.41233e-06
2.08069e-05
4.11563e-06
3.17296e-05
6.09036e-06
4.64798e-05
8.45923e-06
6.62859e-05
1.12958e-05
9.25053e-05
1.4619e-05
0.000126619
1.83784e-05
0.000170208
2.24357e-05
0.000224915
2.65445e-05
0.000292399
3.03343e-05
0.000374287
3.33053e-05
0.000472127
3.48406e-05
0.00058733
3.42443e-05
0.000721198
3.08089e-05
0.0008748
2.3915e-05
0.00104867
1.31543e-05
0.00124282
-1.54836e-06
0.00145674
-1.98398e-05
0.00168916
-4.09043e-05
0.00193787
-6.35192e-05
0.00219944
-8.62104e-05
0.00246916
-0.000107494
0.00274095
-0.000126144
0.0030067
-0.000141385
0.00325545
-0.000152943
0.0034729
-0.000160926
0.00364144
-0.000165568
0.00374081
-0.000166932
-0.000164503
0.00375848
6.09504e-06
8.09061e-07
1.27327e-05
2.4061e-06
2.09655e-05
4.09415e-06
3.1841e-05
6.03785e-06
4.64411e-05
8.35506e-06
6.59422e-05
1.1116e-05
9.16326e-05
1.43392e-05
0.000124905
1.79789e-05
0.000167228
2.19094e-05
0.000220112
2.59082e-05
0.000285054
2.96431e-05
0.00036349
3.26694e-05
0.000456746
3.44427e-05
0.000565982
3.43531e-05
0.000692153
3.17856e-05
0.00083592
2.62055e-05
0.000997489
1.7261e-05
0.00117652
4.88587e-06
0.00137207
-1.06219e-05
0.00158243
-2.85731e-05
0.00180495
-4.79316e-05
0.00203591
-6.74381e-05
0.0022704
-8.57975e-05
0.00250224
-0.000101883
0.00272362
-0.00011489
0.00292478
-0.00012439
0.0030939
-0.000130267
0.00321754
-0.00013257
0.00328198
-0.000131335
-0.000126645
0.00328348
6.13466e-06
8.01687e-07
1.27846e-05
2.38088e-06
2.09756e-05
4.04076e-06
3.17208e-05
5.93913e-06
4.60552e-05
8.18848e-06
6.50929e-05
1.08557e-05
9.00413e-05
1.39595e-05
0.000122191
1.74601e-05
0.00016289
2.12462e-05
0.000213497
2.51215e-05
0.000275338
2.87949e-05
0.000349649
3.18801e-05
0.000437525
3.39074e-05
0.000539862
3.43551e-05
0.000657304
3.27015e-05
0.000790165
2.84962e-05
0.000938311
2.14448e-05
0.00110108
1.14916e-05
0.00127718
-1.11737e-06
0.0014646
-1.58133e-05
0.00166046
-3.17392e-05
0.00186093
-4.78455e-05
0.00206118
-6.30313e-05
0.00225531
-7.62992e-05
0.00243628
-8.68784e-05
0.00259582
-9.42806e-05
0.00272468
-9.82795e-05
0.00281318
-9.88331e-05
0.00285252
-9.5993e-05
-9.01909e-05
0.00284385
6.1269e-06
7.87747e-07
1.27374e-05
2.33635e-06
2.08211e-05
3.9552e-06
3.13484e-05
5.79426e-06
4.52986e-05
7.96015e-06
6.37143e-05
1.05165e-05
8.77123e-05
1.34824e-05
0.000118473
1.68248e-05
0.000157209
2.04475e-05
0.000205126
2.41816e-05
0.000263371
2.77778e-05
0.000332976
3.09076e-05
0.000414809
3.31755e-05
0.000509513
3.41457e-05
0.000617451
3.3386e-05
0.000738636
3.05268e-05
0.000872647
2.53281e-05
0.00101855
1.77457e-05
0.00117482
7.97859e-06
0.00133927
-3.51395e-06
0.00150896
-1.60399e-05
0.00168016
-2.87458e-05
0.00184831
-4.0723e-05
0.00200812
-5.11231e-05
0.00215353
-5.92561e-05
0.00227786
-6.46448e-05
0.00237415
-6.70299e-05
0.00243574
-6.63368e-05
0.00245721
-6.26276e-05
-5.65055e-05
0.00244228
6.06772e-06
7.67263e-07
1.25833e-05
2.27266e-06
2.04918e-05
3.83793e-06
3.07125e-05
5.60433e-06
4.41615e-05
7.67214e-06
6.18021e-05
1.01015e-05
8.46535e-05
1.29122e-05
0.000113778
1.60777e-05
0.00015025
1.95175e-05
0.000195117
2.30891e-05
0.000249347
2.65836e-05
0.000313775
2.97282e-05
0.000389054
3.21966e-05
0.000475595
3.36333e-05
0.000573517
3.36886e-05
0.000682589
3.20662e-05
0.000802162
2.85758e-05
0.000931113
2.31831e-05
0.00106778
1.60463e-05
0.00120993
7.52738e-06
0.00135471
-1.82862e-06
0.00149861
-1.13467e-05
0.00163758
-2.03002e-05
0.00176701
-2.79973e-05
0.00188191
-3.38573e-05
0.00197711
-3.74604e-05
0.00204754
-3.85647e-05
0.00208879
-3.70961e-05
0.00209764
-3.31244e-05
-2.7303e-05
0.00207906
5.95464e-06
7.40447e-07
1.23182e-05
2.1905e-06
1.99832e-05
3.69031e-06
2.98106e-05
5.37168e-06
4.26471e-05
7.3281e-06
5.93711e-05
9.61602e-06
8.0899e-05
1.22557e-05
0.000108172
1.52272e-05
0.000142125
1.84642e-05
0.000183647
2.18495e-05
0.000233535
2.52116e-05
0.00029244
2.83281e-05
0.000360817
3.09361e-05
0.000438878
3.27509e-05
0.00052654
3.34959e-05
0.000623384
3.29385e-05
0.000728601
3.09307e-05
0.000840958
2.74466e-05
0.000958758
2.2608e-05
0.00107982
1.66926e-05
0.00120147
1.01176e-05
0.00132057
3.40071e-06
0.00143361
-2.8975e-06
0.00153674
-8.23735e-06
0.00162601
-1.21585e-05
0.00169751
-1.43216e-05
0.00174769
-1.45294e-05
0.00177369
-1.27264e-05
0.00177375
-8.98704e-06
-3.93287e-06
0.00175327
5.78711e-06
7.07702e-07
1.19418e-05
2.0911e-06
1.92973e-05
3.51461e-06
2.86502e-05
5.09991e-06
4.0773e-05
6.93334e-06
5.64557e-05
9.06741e-06
7.65099e-05
1.15225e-05
0.000101755
1.42844e-05
0.000132988
1.73001e-05
0.000170949
2.04745e-05