/*--------------------------------*- C++ -*----------------------------------*\
| =========                 |                                                 |
| \\      /  F ield         | OpenFOAM: The Open Source CFD Toolbox           |
|  \\    /   O peration     | Version:  2012                                  |
|   \\  /    A nd           | Website:  www.openfoam.com                      |
|    \\/     M anipulation  |                                                 |
\*---------------------------------------------------------------------------*/
FoamFile
{
    version     2.0;
    format      ascii;
    class       volScalarField;
    location    "0.3";
    object      p;
}
// * * * * * * * * * * * * * * * * * * * * * * * * * * * * * * * * * * * * * //

dimensions      [0 2 -2 0 0 0 0];


internalField   nonuniform List<scalar> 
2790
(
70.6241
70.504
70.7118
71.1939
71.8575
72.6711
73.6319
74.7387
75.987
77.3727
78.8927
80.5451
82.3281
84.2389
86.2737
88.4264
90.6879
93.045
95.4793
97.9663
100.474
102.965
105.391
107.7
109.839
111.75
113.384
114.697
115.657
116.28
70.4285
70.4194
70.653
71.1331
71.794
72.606
73.5644
74.6673
75.9108
77.2906
78.8038
80.4486
82.2232
84.1252
86.1508
88.2943
90.5471
92.8965
95.3248
97.8084
100.316
102.811
105.245
107.569
109.724
111.654
113.307
114.636
115.603
116.23
70.244
70.3052
70.5586
71.0296
71.6794
72.4816
73.429
74.5189
75.7473
77.1101
78.6043
80.228
81.9793
83.8558
85.8542
87.9688
90.1917
92.5108
94.9095
97.3654
99.8489
102.323
104.744
107.06
109.214
111.147
112.801
114.127
115.073
115.656
70.04
70.1325
70.3997
70.864
71.5019
72.2913
73.2237
74.2953
75.502
76.8397
78.3055
79.8971
81.6128
83.4502
85.4059
87.4748
89.6494
91.9186
94.2668
96.673
99.1097
101.542
103.927
106.213
108.345
110.26
111.896
113.193
114.087
114.579
69.8068
69.9139
70.1908
70.6498
71.2739
72.0459
72.9572
74.0034
75.1802
76.4836
77.9104
79.4584
81.1256
82.9095
84.8068
86.8128
88.9204
91.1192
93.3952
95.7289
98.0949
100.461
102.786
105.022
107.111
108.991
110.594
111.853
112.694
113.089
69.54
69.6534
69.9341
70.3853
70.9927
71.7427
72.6274
73.642
74.7818
76.0425
77.4209
78.9144
80.5208
82.2375
84.0611
85.9869
88.0082
90.1156
92.296
94.5319
96.8002
99.0714
101.308
103.465
105.487
107.312
108.872
110.097
110.911
111.262
69.2377
69.3528
69.632
70.0726
70.6605
71.3846
72.2378
73.2147
74.3104
75.5204
76.8411
78.2696
79.8033
81.4392
83.1737
85.0019
86.9174
88.9112
90.9711
93.0814
95.2211
97.364
99.4766
101.518
103.44
105.184
106.687
107.883
108.705
109.088
68.8995
69.0133
69.287
69.7139
70.2794
70.9738
71.7906
72.7243
73.7693
74.921
76.1752
77.5287
78.9781
80.5201
82.1505
83.864
85.6539
87.5111
89.4241
91.3781
93.354
95.3285
97.2727
99.1519
100.926
102.547
103.965
105.126
105.975
106.459
68.5257
68.6364
68.9013
69.3114
69.8516
70.5128
71.2888
72.1739
73.1622
74.2484
75.4281
76.6971
78.0516
79.4873
80.9991
82.5811
84.2255
85.9229
87.6612
89.4257
91.1982
92.9572
94.6776
96.3311
97.8879
99.3176
100.591
101.68
102.552
103.198
68.1172
68.2235
68.477
68.8676
69.3797
70.0043
70.7356
71.5673
72.4933
73.5077
74.6053
75.7813
77.0309
78.3487
79.7285
81.1629
82.6429
84.1572
85.6926
87.2326
88.7583
90.2475
91.6764
93.0212
94.2617
95.3867
96.3992
97.3189
98.1536
99.0212
67.6754
67.7762
68.0164
68.3851
68.8665
69.4515
70.1343
70.9085
71.7672
72.704
73.713
74.7884
75.9242
77.1138
78.3492
79.6214
80.9189
82.2283
83.5331
84.8135
86.0466
87.2062
88.2645
89.1956
89.982
90.6271
91.1698
91.7032
92.3185
93.3988
67.202
67.2965
67.5216
67.8663
68.3147
68.8576
69.4888
70.2017
70.9889
71.8432
72.7579
73.7262
74.7406
75.7929
76.8734
77.9704
79.0698
80.1544
81.2031
82.1906
83.0863
83.8545
84.4553
84.8485
85.0022
84.9122
84.6352
84.3493
84.2952
85.385
66.6988
66.7865
66.9953
67.3142
67.7275
68.2259
68.803
69.4516
70.1637
70.9315
71.7472
72.6029
73.4898
74.3976
75.3145
76.226
77.1143
77.9577
78.7291
79.3949
79.9133
80.2327
80.2903
80.0131
79.3238
78.1607
76.5252
74.6159
72.8571
73.2482
66.1679
66.2483
66.4397
66.7314
67.108
67.5602
68.0809
68.6627
69.297
69.9751
70.6884
71.4275
72.1822
72.9403
73.6874
74.4058
75.0739
75.6644
76.1432
76.4665
76.5779
76.4039
75.8479
74.7827
73.0428
70.4226
66.6984
61.791
55.9424
52.999
65.6116
65.6843
65.8575
66.1209
66.4595
66.8639
67.3268
67.84
68.3944
68.9806
69.589
70.209
70.8286
71.4337
72.0073
72.5286
72.9715
73.3033
73.482
73.4529
73.1432
72.4543
71.2485
69.3283
66.4007
62.0163
55.457
45.6191
30.5004
12.7866
-103.832
-103.637
-103.092
-102.072
-100.424
-97.9729
-94.5428
-90.0222
-84.3842
-77.7002
-70.1777
-62.1243
-53.8312
-45.4915
-37.462
-30.1579
-23.7594
-18.3364
-13.8765
-10.3066
-7.51537
-5.3722
-3.74519
-2.52257
-1.61794
-0.959216
-0.482081
-0.134033
0.121599
0.307971
-104.209
-104.066
-103.582
-102.632
-101.053
-98.6543
-95.2473
-90.714
-85.03
-78.2791
-70.678
-62.5517
-54.19
-45.7834
-37.699
-30.3545
-23.9243
-18.4755
-13.9942
-10.4064
-7.59988
-5.44252
-3.80315
-2.57085
-1.65836
-0.992376
-0.508389
-0.154042
0.10813
0.309237
-105.05
-105.02
-104.656
-103.837
-102.38
-100.07
-96.6958
-92.1229
-86.3387
-79.4336
-71.6504
-63.3449
-54.8214
-46.2567
-38.0312
-30.5887
-24.0908
-18.5967
-14.0861
-10.4798
-7.66076
-5.49406
-3.84802
-2.61157
-1.69563
-1.02517
-0.535635
-0.175273
0.0935322
0.305465
-106.413
-106.567
-106.391
-105.777
-104.513
-102.345
-99.026
-94.396
-88.4486
-81.288
-73.1993
-64.5844
-55.7788
-46.9523
-38.5002
-30.9025
-24.3013
-18.7421
-14.1929
-10.5644
-7.73222
-5.55698
-3.90554
-2.66547
-1.74548
-1.0691
-0.572101
-0.203673
0.0734592
0.295985
-108.394
-108.804
-108.895
-108.586
-107.615
-105.668
-102.439
-97.7412
-91.5538
-84.0079
-75.458
-66.3734
-57.1269
-47.9092
-39.1355
-31.3151
-24.5672
-18.9171
-14.3158
-10.6588
-7.8108
-5.62659
-3.9702
-2.72673
-1.80231
-1.11927
-0.613882
-0.236351
0.0499992
0.283097
-111.146
-111.874
-112.33
-112.461
-111.93
-110.324
-107.242
-102.455
-95.9147
-87.7988
-78.5764
-68.817
-58.9242
-49.1529
-39.9593
-31.8437
-24.902
-19.1332
-14.4643
-10.7709
-7.90358
-5.70901
-4.04711
-2.79949
-1.86948
-1.17841
-0.663196
-0.275129
0.0217402
0.266115
-114.828
-115.953
-116.918
-117.687
-117.8
-116.698
-113.836
-108.896
-101.807
-92.8483
-82.6692
-71.9768
-61.1977
-50.6824
-40.9747
-32.4935
-25.3118
-19.3969
-14.6447
-10.9065
-8.01542
-5.80832
-4.13923
-2.88554
-1.94782
-1.24671
-0.719872
-0.319635
-0.0108331
0.245594
-119.614
-121.245
-122.924
-124.609
-125.644
-125.24
-122.64
-117.384
-109.415
-99.2386
-87.7517
-75.8093
-63.9043
-52.4687
-42.1584
-33.2512
-25.7917
-19.7085
-14.8605
-11.0701
-8.15124
-5.92884
-4.24979
-2.98699
-2.03863
-1.32497
-0.784389
-0.370185
-0.0479407
0.221366
-125.695
-127.942
-130.596
-133.543
-135.83
-136.312
-133.91
-128.041
-118.698
-106.851
-93.688
-80.1529
-66.8855
-54.4528
-43.457
-34.0818
-26.323
-20.0606
-15.1107
-11.2643
-8.31472
-6.0739
-4.38121
-3.10538
-2.14282
-1.41363
-0.856903
-0.42676
-0.0894765
0.193544
-133.126
-136.072
-139.98
-144.578
-148.47
-149.973
-147.512
-140.58
-129.268
-115.313
-100.121
-84.7504
-69.9569
-56.4943
-44.7782
-34.9278
-26.8738
-20.4378
-15.3898
-11.4889
-8.50752
-6.24533
-4.53483
-3.24152
-2.26078
-1.51279
-0.937301
-0.489171
-0.135251
0.162275
-141.478
-145.189
-150.637
-157.29
-163.149
-165.714
-162.771
-154.137
-140.37
-124.024
-106.544
-89.1704
-72.893
-58.3991
-45.9973
-35.7146
-27.4022
-20.8186
-15.6884
-11.7403
-8.72851
-6.44261
-4.71017
-3.39491
-2.39193
-1.62183
-1.02498
-0.556896
-0.184846
0.127892
-149.48
-154.089
-161.378
-170.444
-178.484
-181.795
-178.01
-167.329
-151.093
-132.103
-112.248
-92.9558
-75.325
-59.9358
-46.9735
-36.3595
-27.8615
-21.1777
-15.9928
-12.0109
-8.97293
-6.66233
-4.90465
-3.56351
-2.53464
-1.7394
-1.11889
-0.629124
-0.23766
0.0908854
-154.976
-160.753
-170.129
-181.62
-191.655
-195.644
-191.543
-178.6
-159.984
-138.384
-116.349
-95.5165
-76.8759
-60.8737
-47.5695
-36.782
-28.2048
-21.4873
-16.2854
-12.2887
-9.23204
-6.89794
-5.11326
-3.74348
-2.68596
-1.8633
-1.21737
-0.704648
-0.292832
0.0519644
-155.653
-163.048
-175.067
-189.015
-200.844
-205.596
-200.914
-185.801
-164.818
-141.389
-118.011
-96.326
-77.2213
-61.0195
-47.6705
-36.9125
-28.3876
-21.7168
-16.544
-12.5567
-9.49276
-7.13942
-5.3284
-3.92911
-2.84166
-1.9904
-1.31817
-0.781873
-0.349224
0.0120824
-149.503
-160.155
-175.64
-191.562
-204.467
-209.133
-202.763
-186.339
-164.347
-140.315
-116.694
-95.0476
-76.1598
-60.2519
-47.1995
-36.6972
-28.3683
-21.8323
-16.7406
-12.7922
-9.73706
-7.37292
-5.53978
-4.11299
-2.99659
-2.11724
-1.41904
-0.859394
-0.40599
-0.0280692
65.0212
65.0857
65.2398
65.4735
65.7725
66.1274
66.5302
66.9724
67.4444
67.9359
68.4362
68.9336
69.4145
69.8627
70.2587
70.5785
70.7919
70.8605
70.7349
70.3495
69.6161
68.4114
66.5581
63.7888
59.6775
53.4971
43.8668
27.8062
-4.28255
-97.2586
64.3898
64.4458
64.5798
64.7824
65.04
65.3432
65.6837
66.0523
66.4389
66.8326
67.2216
67.5931
67.9317
68.2196
68.4349
68.5505
68.5325
68.3377
67.9102
67.1759
66.0343
64.3451
61.9051
58.407
53.3606
45.9347
34.6068
16.6719
-10.4695
-50.8128
63.7225
63.7697
63.8828
64.0532
64.2682
64.5183
64.7948
65.0882
65.3877
65.6819
65.9582
66.2024
66.398
66.5256
66.5611
66.4751
66.2308
65.7815
65.067
64.0084
62.4997
60.3959
57.4926
53.4944
47.9665
40.275
29.5489
14.7683
-3.77484
-25.5977
63.0205
63.0587
63.1504
63.2879
63.4594
63.6554
63.867
64.0843
64.2962
64.4904
64.6539
64.7714
64.8256
64.7954
64.6556
64.3751
63.9153
63.2278
62.2511
60.906
59.0887
56.6622
53.4433
49.1866
43.5689
36.1874
26.5912
14.2475
-1.2706
-20.5276
62.2858
62.3147
62.3847
62.4888
62.6163
62.7579
62.9044
63.0455
63.1699
63.265
63.317
63.3103
63.2266
63.0441
62.7369
62.273
61.6136
60.7106
59.504
57.9187
55.8594
53.2057
49.8057
45.4702
39.9693
33.0347
24.3696
13.6168
0.413969
-14.9769
61.5203
61.5399
61.5881
61.6588
61.7422
61.8294
61.9111
61.9769
62.0151
62.013
61.9565
61.8296
61.6136
61.2868
60.8228
60.1903
59.3513
58.26
56.8604
55.0845
52.8496
50.0554
46.5824
42.2907
37.0211
30.6008
22.8588
13.6492
2.90121
-8.94063
60.7266
60.737
60.7635
60.8009
60.8407
60.8742
60.8921
60.884
60.8383
60.7421
60.5813
60.3399
59.9994
59.5382
58.9308
58.1471
57.1514
55.9015
54.3473
52.4301
50.0809
47.2206
43.7597
39.6004
34.6411
28.7855
21.9586
14.1302
5.32293
-4.13906
59.9077
59.909
59.9141
59.9187
59.9156
59.8967
59.8526
59.7731
59.6465
59.4605
59.2009
58.8522
58.3964
57.8126
57.0769
56.1613
55.0332
53.6552
51.9843
49.9716
47.5625
44.6972
41.3128
37.3458
32.738
27.444
21.4426
14.749
7.41518
-0.308918
59.0668
59.0593
59.0435
59.0162
58.9715
58.9018
58.7981
58.6501
58.4469
58.1761
57.8245
57.3768
56.8162
56.1232
55.2756
54.2482
53.0124
51.5362
49.7839
47.7166
45.293
42.4707
39.208
35.4677
31.2214
26.455
21.1763
15.4219
9.25848
2.88066
58.2079
58.1917
58.1557
58.0977
58.0131
57.8948
57.7343
57.5218
57.2466
56.8973
56.461
55.9237
55.2698
54.4814
53.5388
52.4199
51.1005
49.554
47.752
45.6652
43.2639
40.5197
37.408
33.9102
30.0176
25.7353
21.0864
16.116
10.8914
5.55913
57.3348
57.3105
57.2552
57.1678
57.0452
56.8812
56.6673
56.3946
56.0529
55.6317
55.119
54.5021
53.7667
52.8973
51.8765
50.6858
49.3052
47.7137
45.8897
43.8121
41.461
38.8196
35.8756
32.6234
29.067
25.222
21.1181
16.8012
12.3319
7.82042
56.4521
56.42
56.3466
56.2316
56.0734
55.8665
55.6032
55.275
54.8728
54.3869
53.8065
53.1201
52.3155
51.379
50.2963
49.0522
47.6309
46.0165
44.1935
42.1478
39.8677
37.3447
34.5756
31.5635
28.3196
24.8648
21.2304
17.4587
13.602
9.74371
55.5645
55.5252
55.4347
55.294
55.1028
54.8564
54.5479
54.1695
53.7131
53.1699
52.5305
51.7851
50.923
49.9331
48.8038
47.523
46.0789
44.4603
42.657
40.6605
38.4652
36.0693
33.4754
30.6921
27.7345
24.625
21.3938
18.0784
14.7225
11.3893
54.677
54.6311
54.525
54.3606
54.1391
53.8568
53.5075
53.0843
52.58
51.9871
51.2976
50.5031
49.595
48.5643
47.4021
46.0995
44.6482
43.0408
41.2715
39.3364
37.2348
34.969
32.5457
29.9765
27.278
24.4725
21.5873
18.6548
15.7109
12.8037
53.7949
53.7429
53.6225
53.4367
53.1879
52.8735
52.488
52.0254
51.4796
50.8445
50.1133
49.2793
48.3358
47.2759
46.0932
44.7815
43.3357
41.7517
40.0271
38.1617
36.1579
34.0212
31.7606
29.3889
26.9231
24.3839
21.7955
19.1852
16.5823
14.0237
52.9237
52.8663
52.7331
52.528
52.2549
51.9121
51.4949
50.9984
50.4175
49.7473
48.9825
48.118
47.1487
46.0699
44.8773
43.5672
42.1371
40.5857
38.9132
37.1221
35.217
33.2054
31.0974
28.9061
26.6478
24.3412
22.0073
19.669
17.35
15.0785
52.069
52.0067
51.8622
51.6402
51.3458
50.9783
50.534
50.0087
49.3987
48.7002
47.9092
47.0222
46.0357
44.9469
43.7534
42.4537
41.0472
39.5349
37.9192
36.2042
34.3961
32.5034
30.5367
28.5088
26.4345
24.3306
22.2152
20.107
18.0253
15.9919
51.2366
51.1701
51.0158
50.7791
50.4663
50.0778
49.6106
49.0616
48.4281
47.7074
46.8971
45.9947
44.9985
43.9071
42.7199
41.4372
40.0601
38.5913
37.0345
35.3952
33.6805
31.8993
30.0621
28.1809
26.2692
24.3417
22.4136
20.5007
18.6184
16.7836
50.4324
50.3623
50.1995
49.9502
49.6219
49.2157
48.7297
48.1616
47.5097
46.7726
45.9487
45.0372
44.0375
42.9497
41.7746
40.5138
39.17
37.7469
36.2494
34.6837
33.0575
31.3794
29.6597
27.9096
26.1409
24.3665
22.5993
20.8522
19.1378
17.4694
49.6625
49.5893
49.4193
49.1594
48.8182
48.3976
47.8964
47.3134
46.6477
45.8989
45.0667
44.1512
43.1531
42.0736
40.9148
39.6793
38.3709
36.9942
35.5548
34.0594
32.5155
30.932
29.3181
27.6842
26.0409
24.3991
22.7699
21.1639
19.5914
18.0628
48.9328
48.8571
48.6811
48.4124
48.0606
47.6284
47.1154
46.5211
45.8457
45.0894
44.2532
43.3379
42.3453
41.2777
40.138
38.9298
37.6576
36.3267
34.9429
33.5133
32.0453
30.5473
29.028
27.4966
25.9626
24.4355
22.9244
21.4384
19.9858
18.575
48.2496
48.1718
47.9908
47.715
47.3547
46.9134
46.3915
45.7891
45.1071
44.3469
43.5099
42.5981
41.6139
40.5605
39.4416
38.2614
37.0249
35.7379
34.4065
33.0376
31.6385
30.2172
28.7815
27.34
25.9009
24.4723
23.0623
21.6782
20.327
19.0153
47.6192
47.5395
47.3544
47.0727
46.7055
46.2573
45.7288
45.121
44.4353
43.6738
42.8388
41.9327
40.9589
39.9211
38.8235
37.6709
36.4688
35.223
33.9399
32.6261
31.2888
29.9353
28.573
27.2095
25.8521
24.5079
23.1838
21.8859
20.6201
19.3917
47.048
46.9668
46.7781
46.4915
46.1189
45.6654
45.1324
44.5211
43.8338
43.0731
42.2417
41.3429
40.3804
39.3585
38.2818
37.1557
35.9856
34.7776
33.538
32.2734
30.9905
29.6963
28.3976
27.1011
25.8134
24.5408
23.2891
22.0636
20.8693
19.7106
46.5427
46.46
46.2679
45.9768
45.5998
45.1423
44.6062
43.9931
43.3056
42.547
41.7204
40.8296
39.8786
38.8722
37.8154
36.7136
35.5726
34.3984
33.1973
31.9756
30.7398
29.4964
28.2517
27.0119
25.7829
24.5701
23.3788
22.2135
21.0784
19.9771
46.1106
46.0261
45.8301
45.5347
45.1539
44.6936
44.1556
43.5417
42.8552
42.0994
41.278
40.3951
39.4551
38.463
37.4241
36.3439
35.2283
34.0833
32.9151
31.7298
30.5338
29.3329
28.1332
26.9403
25.7595
24.5959
23.4539
22.3376
21.2506
20.1961
45.7596
45.6723
45.4706
45.1698
44.7853
44.3227
43.7833
43.1694
42.4843
41.7317
40.9156
40.0402
39.1102
38.1307
37.1072
36.0454
34.9511
33.8304
32.6892
31.5338
30.3699
29.2033
28.0397
26.8842
25.7418
24.6171
23.5141
22.4364
21.3873
20.3695
45.4993
45.407
45.1974
44.8915
44.5044
44.0399
43.4993
42.8853
42.2013
41.4514
40.6397
39.7704
38.8484
37.8791
36.8679
35.8205
34.7429
33.641
32.5208
31.3882
30.2489
29.1084
27.9721
26.8449
25.7314
24.6358
23.562
22.5132
21.4924
20.502
45.3418
45.2274
45.0019
44.6917
44.3044
43.8398
43.2994
42.6863
42.0043
41.2573
40.4493
39.585
38.6692
37.7072
36.7048
35.6676
34.6016
33.5126
32.4068
31.2897
30.167
29.0442
27.9263
26.8181
25.724
24.648
23.5937
22.5642
21.5623
20.5901
45.3513
45.1688
44.9148
44.599
44.2097
43.7432
43.2015
42.5884
41.9074
41.1622
40.3568
39.4957
38.5837
37.6262
36.6287
35.5972
34.5375
33.4555
32.3571
31.248
30.1339
29.02
27.9113
26.8126
25.7281
24.6618
23.6171
22.5971
21.6043
20.641
-248.115
-223.16
-175.581
-84.0476
-92.44
-95.7046
-52.1144
-71.3641
-85.7251
-44.1284
-60.3887
-72.3455
-31.6338
-43.2882
-52.5703
-21.2182
-30.0275
-37.3198
-13.681
-20.4719
-26.1099
-7.81763
-13.099
-17.4951
-3.12091
-7.31093
-10.8172
0.673269
-2.71593
-5.56875
3.77988
0.99327
-1.36778
6.35556
4.03039
2.04612
8.51187
6.54553
4.8549
10.3312
8.64783
7.18948
11.8758
10.4182
9.14598
13.1935
11.918
10.7964
14.3215
13.1941
12.1957
15.2896
14.2834
13.3865
16.1212
15.215
14.4023
16.8358
16.0124
15.2698
17.4489
16.6943
16.0104
17.9734
17.276
16.641
18.42
17.7701
17.1762
18.7969
18.1864
17.6265
19.1111
18.5328
18.0009
19.3687
18.8163
18.307
19.5721
19.04
18.5485
19.7271
19.2101
18.7317
19.83
19.3231
18.8537
19.8895
19.3885
18.9233
-132.612
-153.197
-173.382
-189.506
-201.7
-205.265
-197.093
-180.012
-158.196
-134.847
-112.176
-91.5468
-73.6117
-58.5191
-46.1166
-36.1008
-28.1147
-21.8046
-16.8497
-12.9742
-9.94826
-7.58577
-5.73815
-4.28864
-3.14634
-2.24095
-1.5182
-0.936158
-0.462541
-0.0680981
-110.827
-142.845
-165.923
-181.819
-191.386
-191.687
-182.161
-165.839
-145.879
-124.797
-104.398
-85.8063
-69.5616
-55.7943
-44.3833
-35.0782
-27.5802
-21.59
-16.8332
-13.0705
-10.1007
-7.758
-5.90841
-4.4449
-3.28287
-2.35584
-1.61167
-1.00948
-0.517185
-0.107042
-104.834
-130.421
-149.629
-162.195
-167.688
-166.107
-157.878
-144.709
-128.528
-111.186
-94.144
-78.3587
-64.3379
-52.2588
-42.0843
-33.6556
-26.7591
-21.1677
-16.6649
-13.0558
-10.1719
-7.87117
-6.03604
-4.57075
-3.39804
-2.45605
-1.6954
-1.07669
-0.568329
-0.144144
-86.9053
-104.866
-120.626
-131.616
-136.594
-136.037
-130.676
-121.424
-109.499
-96.252
-82.8362
-70.0678
-58.4381
-48.1816
-39.3516
-31.887
-25.6636
-20.5297
-16.3287
-12.9118
-10.1448
-7.91041
-6.10886
-4.65654
-3.48445
-2.53607
-1.7654
-1.135
-0.614235
-0.17863
-64.1509
-77.7839
-91.2306
-101.578
-107.155
-108.172
-105.383
-99.4918
-91.3002
-81.7252
-71.6233
-61.6657
-52.3096
-43.8233
-36.3291
-29.8459
-24.3265
-19.6862
-15.8231
-12.6317
-10.0107
-7.86714
-6.11913
-4.69575
-3.5368
-2.59176
-1.81858
-1.1823
-0.653651
-0.210116
-46.2351
-56.6777
-67.6215
-76.6789
-82.3399
-84.5466
-83.7397
-80.4391
-75.1748
-68.5532
-61.1937
-53.6325
-46.2746
-39.393
-33.1477
-27.6113
-22.7931
-18.6612
-15.1593
-12.2191
-9.7688
-7.73845
-6.06311
-4.68451
-3.55153
-2.62009
-1.85252
-1.2168
-0.685462
-0.238205
-32.9269
-40.9313
-49.6124
-57.2499
-62.639
-65.5387
-66.0794
-64.5885
-61.4333
-57.0261
-51.8075
-46.1898
-40.5125
-35.0287
-29.9091
-25.2548
-21.1118
-17.486
-14.3562
-11.6844
-9.42418
-7.52584
-5.94027
-4.62125
-3.5267
-2.6191
-1.8655
-1.23715
-0.7088
-0.262564
-22.8388
-29.1478
-36.1026
-42.4976
-47.4005
-50.5238
-51.8478
-51.5456
-49.8617
-47.0738
-43.4881
-39.4108
-35.1147
-30.8202
-26.6911
-22.8388
-19.3296
-16.1941
-13.4364
-11.0421
-8.9853
-7.23374
-5.75238
-4.50616
-3.4616
-2.58771
-1.85638
-1.24239
-0.722968
-0.282832
-15.1221
-20.2431
-25.9052
-31.2568
-35.5972
-38.6655
-40.3946
-40.8482
-40.1716
-38.5471
-36.1848
-33.3075
-30.1269
-26.8265
-23.5529
-20.4155
-17.489
-14.818
-12.4235
-10.3084
-8.46273
-6.86855
-5.50292
-4.34076
-3.35657
-2.52562
-1.8246
-1.23191
-0.727499
-0.298704
-9.11183
-13.36
-18.0438
-22.5505
-26.3542
-29.2443
-31.1433
-32.0539
-32.0524
-31.2537
-29.7995
-27.848
-25.5593
-23.0801
-20.5357
-18.0264
-15.6267
-13.3878
-11.3408
-9.50027
-7.86828
-6.43804
-5.19669
-4.12777
-3.21293
-2.43327
-1.7701
-1.20544
-0.722051
-0.309904
-4.33556
-7.92251
-11.8587
-15.6923
-19.0248
-21.6918
-23.6236
-24.7944
-25.2371
-25.0194
-24.234
-22.9911
-21.4084
-19.6003
-17.6699
-15.7047
-13.7743
-11.931
-10.2106
-8.63495
-7.21458
-5.95108
-4.83962
-3.87091
-3.03287
-2.31181
-1.69338
-1.1631
-0.706582
-0.316262
-0.477897
-3.55237
-6.90848
-10.2053
-13.1366
-15.576
-17.4667
-18.7723
-19.5
-19.6866
-19.3901
-18.6854
-17.6574
-16.3928
-14.9743
-13.4752
-11.9577
-10.4714
-9.05332
-7.72911
-6.51454
-5.41725
-4.43852
-3.57484
-2.81938
-2.16306
-1.59545
-1.10537
-0.681193
-0.317698
2.6795
0.00988029
-2.88899
-5.75471
-8.34898
-10.5758
-12.3889
-13.7505
-14.6551
-15.1191
-15.1772
-14.8786
-14.2832
-13.4555
-12.4597
-11.3561
-10.1978
-9.02978
-7.88777
-6.79863
-5.78104
-4.84655
-4.00084
-3.24489
-2.57614
-1.98942
-1.47778
-1.03306
-0.646269
-0.3143
5.29217
2.94734
0.413799
-2.10327
-4.41604
-6.45134
-8.17016
-9.54014
-10.5487
-11.2001
-11.5131
-11.5191
-11.259
-10.7799
-10.1307
-9.3595
-8.51065
-7.62336
-6.7305
-5.85831
-5.02656
-4.24907
-3.53446
-2.88699
-2.30746
-1.7939
-1.34236
-0.947371
-0.602384
-0.30623
7.47339
5.39248
3.15435
0.921684
-1.15565
-3.01981
-4.64137
-5.99184
-7.05596
-7.83094
-8.32533
-8.55799
-8.55634
-8.35372
-7.98677
-7.49292
-6.90833
-6.26624
-5.59583
-4.92154
-4.26293
-3.63475
-3.04739
-2.50739
-2.01801
-1.57988
-1.19152
-0.849817
-0.550424
-0.293822
9.30746
7.44341
5.4467
3.44802
1.56836
-0.146062
-1.67265
-2.9877
-4.07536
-4.92898
-5.55071
-5.95092
-6.14719
-6.16263
-6.02402
-5.75999
-5.39934
-4.96958
-4.49588
-4.00022
-3.50104
-3.01311
-2.54763
-2.11253
-1.71284
-1.35113
-1.02793
-0.742143
-0.491358
-0.277486
10.8582
9.17411
7.37654
5.57184
3.85888
2.27496
0.837578
-0.433951
-1.52437
-2.42522
-3.13475
-3.65768
-4.00463
-4.19109
-4.23622
-4.16144
-3.98924
-3.74194
-3.44068
-3.10472
-2.75084
-2.39314
-2.04293
-1.70886
-1.39709
-1.11161
-0.854512
-0.626351
-0.426398
-0.257759
12.1751
10.6414
9.00937
7.36658
5.79475
4.32426
2.96877
1.74393
0.663805
-0.262518
-1.03107
-1.64288
-2.10373
-2.42358
-2.61573
-2.69589
-2.68127
-2.5896
-2.43833
-2.24389
-2.02114
-1.7831
-1.54068
-1.3027
-1.07597
-0.865423
-0.674326
-0.504554
-0.356796
-0.235124
13.2963
11.8892
10.3957
8.88878
7.4368
6.06483
4.78356
3.60565
2.54374
1.60686
0.800137
0.124856
-0.421473
-0.844802
-1.15404
-1.36041
-1.47681
-1.51708
-1.49531
-1.42524
-1.31976
-1.19055
-1.0478
-0.900151
-0.75463
-0.616745
-0.490606
-0.379097
-0.284069
-0.210326
14.2525
12.9524
11.5753
10.1829
8.83291
7.54637
6.33162
5.19894
4.15956
3.22207
2.3921
1.67231
1.06243
0.559336
0.157375
-0.151233
-0.37593
-0.527301
-0.616539
-0.654935
-0.653432
-0.622278
-0.57076
-0.507044
-0.438103
-0.369717
-0.30654
-0.252222
-0.209561
-0.183983
15.0678
13.8583
12.5794
11.2836
10.0205
8.80791
7.65232
6.56211
5.5472
4.61556
3.77292
3.02271
2.36608
1.80188
1.32686
0.935848
0.622131
0.377779
0.194062
0.0618581
-0.027974
-0.0842735
-0.115327
-0.128688
-0.131069
-0.128304
-0.12536
-0.126415
-0.134981
-0.156849
15.7616
14.629
13.4329
12.2187
11.0296
9.88084
8.77744
7.72629
6.73616
5.8143
4.96629
4.19596
3.50536
2.89471
2.36244
1.90537
1.5189
1.19722
0.933647
0.720933
0.551556
0.418006
0.31301
0.22971
0.161789
0.10353
0.0498268
-0.00385524
-0.0615867
-0.129487
16.3497
15.2821
14.1556
13.0103
11.884
10.7899
9.732
8.71618
7.74992
6.83987
5.99136
5.20836
4.49346
3.84778
3.27098
2.76132
2.31582
1.93035
1.59991
1.3188
1.08092
0.879946
0.709575
0.56366
0.436342
0.322123
0.215899
0.11293
0.00877368
-0.102779
16.8445
15.8315
14.7633
13.6755
12.6021
11.5546
10.5361
9.55158
8.60751
7.71
6.86406
6.07369
5.34173
4.66991
4.05872
3.50752
3.0145
2.57688
2.19096
1.85235
1.55615
1.2971
1.06976
0.868687
0.688499
0.523976
0.370093
0.222009
0.0749926
-0.0772951
17.2557
16.2881
15.2682
14.2281
13.1988
12.1903
11.2054
10.248
9.32394
8.43874
7.59713
6.80299
6.05934
5.36824
4.73079
4.14709
3.61626
3.13651
2.70519
2.31897
1.97391
1.66567
1.38958
1.14082
0.914469
0.705622
0.509387
0.3209
0.135262
-0.0538503
17.5917
16.661
15.6803
14.6791
13.6857
12.7093
11.7523
10.8178
9.91101
9.03707
8.20041
7.4048
6.65327
5.94813
5.29088
4.68214
4.1217
3.60851
3.14075
2.71588
2.33079
1.98185
1.66507
1.37617
1.11067
0.863937
0.631251
0.407775
0.1885
-0.0328715
17.8568
16.9554
16.0056
15.035
14.0701
13.1193
12.1845
11.2687
10.3764
9.51223
8.68051
7.88484
7.12825
6.41319
5.74139
5.11385
4.53085
3.99188
3.49571
3.04046
2.62362
2.24216
1.89261
1.57115
1.27367
0.995813
0.733009
0.480483
0.233173
-0.0151398
18.0573
17.1776
16.2507
15.3029
14.3591
13.4275
12.5095
11.6078
10.7264
9.86991
9.04224
8.24695
7.48707
6.76508
6.0829
5.44177
4.84228
4.28432
3.7671
3.28918
2.8485
2.44249
2.06807
1.72179
1.39981
1.09801
0.811966
0.536977
0.267976
-0.00115331
18.1914
17.3262
16.4148
15.4824
14.553
13.6344
12.728
11.8362
10.9628
10.1118
9.28732
8.49265
7.73087
7.0045
6.31556
5.66546
5.055
4.48432
3.95292
3.45966
3.0028
2.58005
2.18863
1.82533
1.4865
1.1682
0.866135
0.575681
0.291846
0.00878184
18.2656
17.4061
16.502
15.5771
14.6547
13.7422
12.841
11.9534
11.0832
10.2345
9.41114
8.61646
7.85344
7.12461
6.43203
5.7772
5.16102
4.58376
4.04506
3.54395
3.07885
2.64762
2.24763
1.87577
1.52853
1.20202
0.892016
0.593983
0.303058
0.0139616
)
;

boundaryField
{
    inlet
    {
        type            zeroGradient;
    }
    outlet
    {
        type            fixedValue;
        value           uniform 0;
    }
    flap
    {
        type            zeroGradient;
    }
    upperWall
    {
        type            zeroGradient;
    }
    lowerWall
    {
        type            zeroGradient;
    }
    frontAndBack
    {
        type            empty;
    }
}


// ************************************************************************* //
