/*--------------------------------*- C++ -*----------------------------------*\
| =========                 |                                                 |
| \\      /  F ield         | OpenFOAM: The Open Source CFD Toolbox           |
|  \\    /   O peration     | Version:  2012                                  |
|   \\  /    A nd           | Website:  www.openfoam.com                      |
|    \\/     M anipulation  |                                                 |
\*---------------------------------------------------------------------------*/
FoamFile
{
    version     2.0;
    format      ascii;
    class       surfaceScalarField;
    location    "0.3";
    object      phi;
}
// * * * * * * * * * * * * * * * * * * * * * * * * * * * * * * * * * * * * * //

dimensions      [0 3 -1 0 0 0 0];
oriented        oriented;


internalField   nonuniform List<scalar> 
5457
(
0.19847
0.00152402
0.196636
0.00182805
0.194496
0.00213252
0.192004
0.00248066
0.18917
0.00281925
0.186015
0.00313467
0.182559
0.00342864
0.178818
0.00370654
0.174799
0.00397542
0.170501
0.00424386
0.165915
0.00452114
0.161022
0.0048161
0.155799
0.00513635
0.150215
0.00548773
0.144237
0.0058741
0.137831
0.00629718
0.130967
0.00675639
0.123618
0.00724868
0.115762
0.00776828
0.10739
0.00830647
0.0985021
0.0088516
0.0891123
0.00938945
0.0792473
0.00990397
0.0689458
0.0103791
0.0582534
0.0108019
0.0472155
0.011166
0.0358646
0.0114777
0.0242046
0.0117602
0.0121591
0.0120866
0.0121531
0.19997
0.00154882
0.199283
0.00250915
0.198134
0.00327371
0.19654
0.00406343
0.194493
0.00485147
0.192001
0.00560657
0.189083
0.00632052
0.185758
0.00699626
0.182047
0.00764318
0.177961
0.00827584
0.173506
0.00891194
0.168676
0.00956985
0.163459
0.0102664
0.157834
0.0110156
0.151775
0.0118275
0.145254
0.0127082
0.138241
0.0136589
0.130709
0.014676
0.122635
0.01575
0.114004
0.0168656
0.10481
0.0180015
0.0950588
0.0191304
0.0847698
0.0202216
0.0739723
0.0212431
0.0627039
0.0221684
0.0510023
0.0229849
0.0388922
0.0237048
0.0263663
0.0243771
0.0133493
0.025135
0.0254895
0.199821
0.00172285
0.199189
0.00313533
0.198103
0.00435193
0.19659
0.00556543
0.194646
0.00678105
0.192271
0.00796151
0.189478
0.00908747
0.186283
0.010157
0.182702
0.0111802
0.178748
0.0121765
0.174424
0.0131709
0.169727
0.0141907
0.164643
0.0152617
0.159154
0.0164062
0.153233
0.0176413
0.146849
0.0189783
0.139971
0.0204218
0.132566
0.0219695
0.124604
0.0236105
0.11606
0.0253258
0.106916
0.0270868
0.0971624
0.0288563
0.086802
0.0305903
0.0758476
0.0322413
0.0643242
0.033766
0.0522668
0.0351349
0.0397195
0.0363448
0.0267404
0.0374244
0.0134112
0.0384753
0.0388844
0.199743
0.00197502
0.199107
0.00376477
0.198041
0.00541065
0.196554
0.00704218
0.194647
0.00867343
0.192322
0.0102662
0.189591
0.0117924
0.186468
0.0132451
0.18297
0.0146349
0.179107
0.0159859
0.174882
0.0173303
0.170291
0.0187039
0.165322
0.0201416
0.159953
0.0216738
0.154159
0.0233252
0.147905
0.0251133
0.141157
0.0270474
0.133878
0.029128
0.126028
0.0313458
0.117574
0.0336804
0.108482
0.0360997
0.098727
0.0385591
0.0882932
0.0410033
0.0771772
0.0433682
0.0653942
0.0455871
0.0529864
0.0475978
0.0400372
0.04935
0.0266962
0.0508013
0.0132135
0.0519477
0.0520822
0.199706
0.00226379
0.199061
0.00440365
0.198014
0.00645079
0.196556
0.0084889
0.194691
0.0105241
0.192421
0.0125163
0.189757
0.0144305
0.186713
0.0162549
0.183303
0.0180005
0.179539
0.0196958
0.175423
0.02138
0.170951
0.0230976
0.166109
0.0248921
0.160876
0.0268029
0.155223
0.0288626
0.149116
0.0310956
0.142515
0.0335176
0.135376
0.0361341
0.127653
0.0389396
0.119297
0.0419159
0.110263
0.0450302
0.100505
0.0482342
0.0899881
0.0514624
0.0786933
0.0546322
0.0666275
0.0576451
0.0538449
0.060388
0.0404734
0.0627317
0.0267526
0.0645201
0.013081
0.0655923
0.0651592
0.19969
0.00256826
0.199044
0.0050444
0.198019
0.00746833
0.1966
0.00989746
0.194786
0.0123238
0.19258
0.0147018
0.189994
0.0169904
0.187041
0.0191735
0.183736
0.0212622
0.180087
0.0232891
0.1761
0.0253007
0.171768
0.0273497
0.167077
0.0294886
0.162007
0.0317659
0.156527
0.0342227
0.150599
0.0368916
0.14418
0.0397962
0.137219
0.0429491
0.12966
0.0463514
0.121442
0.0499906
0.112502
0.0538375
0.102775
0.0578429
0.0922035
0.0619338
0.0807484
0.066008
0.068405
0.0699282
0.055233
0.0735137
0.041396
0.0765288
0.0272085
0.078667
0.0131839
0.0795761
0.0783455
0.199687
0.0028766
0.199047
0.00567818
0.198049
0.00845844
0.196675
0.011261
0.194921
0.0140635
0.192791
0.0168122
0.190295
0.0194598
0.187448
0.0219866
0.184262
0.0244034
0.180749
0.0267472
0.176911
0.029071
0.172743
0.0314359
0.168232
0.0339036
0.163356
0.0365315
0.158083
0.0393701
0.152374
0.0424612
0.146182
0.0458376
0.139449
0.0495215
0.132111
0.0535237
0.124093
0.0578409
0.115314
0.062452
0.105688
0.067312
0.095132
0.0723448
0.0835784
0.0774306
0.0709998
0.0823909
0.0574449
0.0869671
0.0430903
0.0907952
0.0283013
0.0933832
0.0136689
0.0941608
0.0920238
0.19969
0.00318152
0.199065
0.00629748
0.1981
0.0094156
0.196778
0.0125731
0.195092
0.0157347
0.193048
0.0188371
0.190655
0.0218268
0.187926
0.0246801
0.184877
0.0274081
0.181517
0.0300514
0.17785
0.0326697
0.17387
0.0353322
0.169566
0.0381092
0.164916
0.0410678
0.159887
0.0442677
0.154441
0.0477611
0.148526
0.0515912
0.142081
0.0557918
0.135033
0.0603865
0.127296
0.0653852
0.118773
0.07078
0.109352
0.076537
0.0989217
0.0825843
0.0873766
0.0887926
0.0746482
0.0949479
0.0607459
0.100715
0.0458216
0.105588
0.0302501
0.108859
0.0146627
0.109707
0.10672
0.199698
0.00347812
0.199094
0.00689589
0.198168
0.010334
0.196904
0.013827
0.195296
0.017329
0.193346
0.0207667
0.191067
0.0240797
0.188472
0.0272408
0.185574
0.0302611
0.182385
0.0331845
0.178908
0.036077
0.17514
0.0390153
0.17107
0.0420787
0.166677
0.0453431
0.161931
0.0488782
0.156792
0.0527466
0.151208
0.0570031
0.145117
0.0616948
0.13844
0.0668603
0.131082
0.0725272
0.12293
0.0787064
0.113851
0.0853836
0.103697
0.0925026
0.092317
0.0999397
0.0795773
0.107464
0.0654087
0.114679
0.0498801
0.120948
0.0333085
0.125318
0.0163183
0.126665
0.123089
0.19971
0.00376296
0.199132
0.00746826
0.198251
0.0112081
0.197051
0.0150167
0.195526
0.0188389
0.193682
0.0225918
0.191527
0.026208
0.189077
0.0296565
0.186345
0.0329482
0.183343
0.0361302
0.180075
0.039274
0.176542
0.0424636
0.172731
0.0457864
0.168627
0.0493272
0.1642
0.0531652
0.159413
0.0573733
0.154217
0.0620185
0.148549
0.067162
0.14233
0.0728597
0.13546
0.0791597
0.127815
0.0860981
0.119243
0.0936895
0.109561
0.101909
0.0985603
0.110662
0.0860184
0.119734
0.0717385
0.128709
0.0556242
0.136857
0.0378248
0.142984
0.0188659
0.145588
0.142002
0.199725
0.00403346
0.199177
0.00801037
0.198344
0.0120331
0.197214
0.0161366
0.195781
0.0202576
0.194049
0.0243043
0.192029
0.028202
0.189735
0.0319158
0.187182
0.0354564
0.184382
0.0388736
0.181341
0.0422436
0.178061
0.0456571
0.174535
0.049209
0.170747
0.052992
0.166674
0.0570943
0.162284
0.0615987
0.157531
0.0665838
0.152356
0.0721253
0.146686
0.0782965
0.140421
0.0851689
0.133434
0.0928082
0.125561
0.101268
0.116589
0.110571
0.106249
0.120684
0.0942116
0.131457
0.0800984
0.14253
0.0635387
0.153174
0.0443321
0.16203
0.0226981
0.167164
0.164725
0.199741
0.00428757
0.199227
0.00851868
0.198448
0.0128048
0.197393
0.0171816
0.196057
0.0215792
0.194445
0.0258969
0.192568
0.0300532
0.19044
0.0340092
0.188077
0.0377747
0.185492
0.0414018
0.182693
0.044971
0.179685
0.0485785
0.176463
0.0523257
0.173018
0.0563125
0.169332
0.0606348
0.165377
0.0653841
0.161118
0.0706496
0.156504
0.0765198
0.151471
0.0830854
0.145929
0.0904406
0.139758
0.0986835
0.132795
0.107912
0.124813
0.118216
0.115494
0.129652
0.104401
0.142199
0.0909345
0.155664
0.0743257
0.1695
0.0537371
0.18242
0.0286033
0.192206
0.193322
0.199759
0.00452374
0.199281
0.0089904
0.19856
0.0135193
0.197584
0.0181473
0.19635
0.0227984
0.194865
0.0273635
0.193137
0.0317544
0.191184
0.0359282
0.18902
0.0398936
0.186661
0.043704
0.184118
0.0474436
0.181396
0.0512132
0.178497
0.0551194
0.175417
0.059268
0.172143
0.0637609
0.168659
0.0686969
0.164938
0.0741732
0.160944
0.080289
0.156628
0.0871492
0.15192
0.0948685
0.146721
0.103575
0.140886
0.113411
0.134202
0.12454
0.126342
0.137134
0.116798
0.151359
0.104768
0.167322
0.0890066
0.184932
0.0676645
0.203515
0.0383324
0.221405
0.231615
0.199778
0.00474078
0.199339
0.00942334
0.198677
0.014174
0.197784
0.0190303
0.196658
0.0239109
0.195303
0.0286991
0.193732
0.0332999
0.191959
0.0376663
0.190003
0.0418055
0.187879
0.0457717
0.185601
0.0496518
0.183177
0.0535499
0.180615
0.0575768
0.177915
0.0618423
0.175076
0.0664529
0.172088
0.0715117
0.168941
0.0771215
0.165615
0.0833882
0.162082
0.0904261
0.158301
0.0983639
0.154208
0.107351
0.149705
0.117569
0.144631
0.129242
0.138715
0.142655
0.131485
0.15818
0.122088
0.176312
0.108937
0.197705
0.0889952
0.223146
0.0562511
0.253956
0.287797
0.199798
0.00493774
0.1994
0.0098157
0.1988
0.0147662
0.197993
0.0198277
0.196976
0.0249135
0.195757
0.0298999
0.194346
0.0346853
0.192759
0.0392186
0.191016
0.043505
0.189133
0.0475989
0.187127
0.0515886
0.18501
0.0555809
0.182794
0.059689
0.180486
0.0640252
0.178094
0.068698
0.175622
0.0738126
0.173072
0.0794735
0.170445
0.0857886
0.16774
0.092875
0.164951
0.100866
0.162065
0.109919
0.159053
0.120233
0.155854
0.132064
0.152345
0.145761
0.148271
0.161831
0.143088
0.181065
0.135572
0.204806
0.122613
0.23574
0.0944087
0.281912
0.382052
-0.00721048
0.00724255
-0.0152747
0.00802686
-0.0236376
0.00827657
-0.0316684
0.00794429
-0.0388528
0.00712532
-0.0445961
0.00572182
-0.0483482
0.00376961
-0.0496736
0.00137841
-0.048243
-0.00134754
-0.0438498
-0.00428661
-0.0364348
-0.00729174
-0.0261995
-0.0101023
-0.0136334
-0.0124299
0.000636211
-0.0141355
0.0158948
-0.015131
0.0315344
-0.0155218
0.0470474
-0.015407
0.0620305
-0.01489
0.0761838
-0.0140734
0.0893045
-0.0130537
0.101252
-0.0118923
0.111988
-0.0106928
0.121535
-0.00951227
0.129935
-0.00837351
0.137249
-0.0072944
0.143557
-0.00629345
0.148949
-0.00538153
0.153516
-0.00456003
0.157351
-0.00382933
-0.00324284
-0.00774551
0.0150203
-0.0161707
0.0164109
-0.0247828
0.0168057
-0.0330894
0.0161729
-0.0404329
0.0144201
-0.0462726
0.0115507
-0.0501495
0.00767402
-0.0514345
0.00272546
-0.0497898
-0.00290123
-0.0450625
-0.00890052
-0.0371445
-0.015081
-0.0262308
-0.0208787
-0.0130487
-0.0254724
0.00178109
-0.0288287
0.017549
-0.0307697
0.0336496
-0.0315034
0.0495823
-0.031233
0.0649518
-0.0301662
0.0794667
-0.0285083
0.0929266
-0.0264468
0.105226
-0.0241373
0.116314
-0.0217365
0.126199
-0.0193637
0.134928
-0.0170759
0.142563
-0.0149102
0.149183
-0.0128993
0.154874
-0.0110624
0.159723
-0.00940129
0.163809
-0.00790946
-0.00659853
-0.00868722
0.0237332
-0.0178831
0.0255657
-0.0271308
0.0259838
-0.0359339
0.0249183
-0.0437782
0.0222377
-0.0500638
0.0178469
-0.0541408
0.0117981
-0.0554772
0.00414142
-0.0536212
-0.00465097
-0.0483809
-0.0140146
-0.0396215
-0.023701
-0.027936
-0.0324181
-0.0139267
-0.0393353
0.00162291
-0.0442366
0.0179399
-0.0469535
0.0344376
-0.0478794
0.0506348
-0.0473217
0.0661578
-0.0455946
0.0807381
-0.043008
0.0941962
-0.0398376
0.106438
-0.0363244
0.11744
-0.0326947
0.127223
-0.0291118
0.135839
-0.0256659
0.143363
-0.0224146
0.149879
-0.0194016
0.155477
-0.0166502
0.160244
-0.0141605
0.164257
-0.0119171
-0.00991046
-0.0100277
0.0337812
-0.0203534
0.0358535
-0.0305718
0.0361554
-0.0403215
0.0346412
-0.0489857
0.0309072
-0.0558774
0.0247794
-0.0602984
0.0162937
-0.0616705
0.0056174
-0.0593383
-0.00685597
-0.0531191
-0.0200896
-0.0431162
-0.0335495
-0.0301081
-0.045268
-0.0148618
-0.0544256
0.00169369
-0.0606428
0.0187536
-0.0638747
0.0357697
-0.0647697
0.0522957
-0.0637361
0.0679929
-0.0611951
0.0826259
-0.0575588
0.0960433
-0.0531868
0.108183
-0.0484086
0.119045
-0.0435124
0.128665
-0.0386979
0.13711
-0.0340848
0.144466
-0.0297504
0.150825
-0.0257463
0.156281
-0.0220961
0.160923
-0.0187951
0.16483
-0.0158187
-0.013141
-0.0118055
0.0455938
-0.0238044
0.0478192
-0.0354724
0.0478068
-0.0464494
0.0456301
-0.0561836
0.0406859
-0.063912
0.0325851
-0.0686825
0.0211717
-0.069677
0.0067448
-0.0662893
-0.0100912
-0.0584074
-0.027806
-0.0465676
-0.045217
-0.0318126
-0.0598503
-0.0150488
-0.0710217
0.0026428
-0.0781761
0.0205008
-0.081587
0.0380362
-0.0821741
0.0548545
-0.0804392
0.070666
-0.0769072
0.0852772
-0.072086
0.0985767
-0.0664168
0.110538
-0.060314
0.121186
-0.0541148
0.130574
-0.0480512
0.138784
-0.0422686
0.145914
-0.0368607
0.152065
-0.0318833
0.157335
-0.0273564
0.161816
-0.0232684
0.165588
-0.0195845
-0.0162648
-0.0140341
0.0596242
-0.0280317
0.0617983
-0.0416104
0.0614054
-0.054269
0.0583436
-0.0652836
0.0517877
-0.0736898
0.0411083
-0.0783865
0.0260116
-0.0783169
0.00683959
-0.0730012
-0.0152271
-0.0626701
-0.0379481
-0.0485001
-0.0591951
-0.0316992
-0.0764624
-0.0133804
-0.0891599
0.00534606
-0.0967341
0.0238697
-0.0999572
0.041767
-0.0999346
0.0587088
-0.0972615
0.0744637
-0.0925598
0.0888892
-0.0864254
0.101927
-0.0793838
0.113583
-0.0719127
0.123904
-0.0643903
0.132965
-0.0570765
0.140861
-0.0501381
0.1477
-0.0436799
0.153589
-0.037758
0.158629
-0.0323863
0.162912
-0.027544
0.166519
-0.0231855
-0.0192561
-0.016666
0.0763
-0.0330726
0.0782172
-0.0487471
0.0771414
-0.063117
0.0728127
-0.0752516
0.0640523
-0.0838565
0.0498699
-0.0876331
0.0299673
-0.0854421
0.0048449
-0.0772068
-0.0232547
-0.0638648
-0.0510772
-0.0470959
-0.0757521
-0.0282719
-0.0950812
-0.00868603
-0.108552
0.0107266
-0.115968
0.0295881
-0.118657
0.0475291
-0.117733
0.0642903
-0.113899
0.0797076
-0.107871
0.0936964
-0.100326
0.106253
-0.0918679
0.117418
-0.0830194
0.127259
-0.0741856
0.135868
-0.0656494
0.143351
-0.057594
0.14982
-0.0501296
0.155386
-0.0433089
0.160148
-0.0371378
0.164196
-0.0315849
0.16761
-0.0265931
-0.0220928
-0.0193692
0.0956938
-0.038177
0.0970709
-0.0557914
0.0948569
-0.0714839
0.0886459
-0.0840424
0.076781
-0.0919331
0.057955
-0.0936462
0.0318939
-0.0882446
-0.000329648
-0.076389
-0.0348757
-0.0598532
-0.0673771
-0.040681
-0.0946931
-0.0202726
-0.115268
-2.11748e-05
-0.128597
0.0195474
-0.135347
0.0382633
-0.137204
0.0557983
-0.135119
0.0719632
-0.129936
0.0866691
-0.122469
0.0998983
-0.113465
0.111698
-0.103594
0.12214
-0.0934019
0.131312
-0.0833112
0.139318
-0.0736194
0.14627
-0.0645186
0.15228
-0.0561191
0.157452
-0.0484672
0.161884
-0.041559
0.165659
-0.0353525
0.168851
-0.0297784
-0.0247528
-0.0215136
0.117239
-0.0419625
0.11759
-0.0606828
0.113711
-0.0767873
0.104927
-0.0887968
0.0889967
-0.0949376
0.0643246
-0.0934802
0.0306818
-0.0839883
-0.00956591
-0.0683259
-0.0502786
-0.048972
-0.0864738
-0.0280184
-0.115398
-0.0070293
-0.136021
0.0130834
-0.148491
0.0322685
-0.154334
0.0502691
-0.155028
0.0668584
-0.151554
0.0819385
-0.144883
0.0954993
-0.135918
0.107603
-0.125475
0.118333
-0.114249
0.127792
-0.1028
0.136086
-0.0915575
0.143324
-0.0808214
0.149618
-0.0707845
0.15507
-0.0615516
0.159778
-0.0531605
0.163827
-0.0455969
0.16729
-0.0388078
0.17023
-0.0327131
-0.0272155
-0.0219875
0.139267
-0.0424824
0.138174
-0.0608723
0.13226
-0.0761214
0.120382
-0.0865126
0.0996263
-0.0898778
0.06795
-0.0842422
0.0253206
-0.070453
-0.0230736
-0.0514637
-0.068986
-0.0302169
-0.107444
-0.00876919
-0.13658
0.0116726
-0.156215
0.0309544
-0.167544
0.0490613
-0.172235
0.0656958
-0.17148
0.0807447
-0.166445
0.0942127
-0.158216
0.106186
-0.147777
0.11678
-0.135975
0.126123
-0.123515
0.134339
-0.110956
0.141548
-0.0987178
0.147857
-0.0870938
0.153367
-0.0762673
0.15817
-0.0663335
0.162344
-0.0573197
0.165959
-0.0492009
0.169073
-0.0419145
0.171737
-0.035371
-0.0294619
-0.0196326
0.158954
-0.03778
0.156429
-0.0538634
0.148524
-0.0667492
0.133503
-0.0745039
0.107649
-0.073572
0.0673074
-0.063164
0.0152134
-0.0459661
-0.0399671
-0.0248717
-0.0897792
-0.00360686
-0.128417
0.0166799
-0.156589
0.0357259
-0.175002
0.0535311
-0.185112
0.0697745
-0.188266
0.0843302
-0.185848
0.0972192
-0.179171
0.10856
-0.169418
0.118511
-0.157612
0.127241
-0.144609
0.13491
-0.131106
0.141657
-0.117641
0.147602
-0.104614
0.152844
-0.0922983
0.157466
-0.0808615
0.161538
-0.0703855
0.16512
-0.0608859
0.168257
-0.0523282
0.170992
-0.0446414
0.173357
-0.0377293
-0.0314756
-0.0136208
0.172625
-0.026342
0.16927
-0.0376643
0.160049
-0.0463188
0.142421
-0.0500164
0.111645
-0.0439306
0.0615382
-0.02848
8.72488e-05
-0.00920908
-0.0589141
0.0106235
-0.109295
0.0298599
-0.147349
0.0481452
-0.174587
0.0651197
-0.191709
0.080418
-0.200168
0.093914
-0.201544
0.105652
-0.197395
0.115785
-0.189139
0.124518
-0.178011
0.132072
-0.165048
0.138649
-0.15109
0.144423
-0.136802
0.149534
-0.122689
0.154088
-0.10912
0.158167
-0.0963391
0.161828
-0.0844948
0.165116
-0.0736532
0.168064
-0.0638185
0.170695
-0.0549482
0.173027
-0.0469657
0.175075
-0.0397711
-0.0332437
-0.00415289
0.176825
-0.00798446
0.173236
-0.0121104
0.164407
-0.0140412
0.144647
-0.00999741
0.107929
0.00198663
0.0498961
0.0185221
-0.0161037
0.0361396
-0.076192
0.0533925
-0.126219
0.070166
-0.163809
0.0855217
-0.189649
0.0991024
-0.205019
0.110781
-0.2116
0.12063
-0.211174
0.128846
-0.205418
0.135687
-0.195814
0.141424
-0.183606
0.146304
-0.16981
0.150539
-0.155227
0.154292
-0.140475
0.157681
-0.126016
0.160789
-0.112178
0.163665
-0.0991777
0.166339
-0.08714
0.168823
-0.0761166
0.171122
-0.0661021
0.173233
-0.0570485
0.175152
-0.0488769
0.176874
-0.0414872
-0.0347587
0.0097459
0.167132
0.0177815
0.165371
0.0235343
0.158927
0.0308036
0.137709
0.043069
0.0960191
0.0583564
0.0349713
0.0739997
-0.0313874
0.089497
-0.091339
0.103805
-0.14019
0.116585
-0.176271
0.127446
-0.200213
0.136306
-0.213605
0.143299
-0.218347
0.148692
-0.216346
0.152806
-0.209339
0.155966
-0.198807
0.158463
-0.185962
0.160537
-0.171766
0.16237
-0.156962
0.164087
-0.142114
0.165767
-0.127634
0.167452
-0.113813
0.169152
-0.10084
0.170861
-0.0888209
0.17256
-0.0777946
0.174223
-0.06775
0.175823
-0.0586374
0.177334
-0.0503792
0.178731
-0.0428786
-0.0360195
0.0304789
0.136783
0.0514378
0.144616
0.0665217
0.144148
0.0831489
0.121434
0.102261
0.0772784
0.120671
0.0169343
0.136271
-0.046621
0.149143
-0.103858
0.159173
-0.149883
0.16656
-0.183339
0.171588
-0.204946
0.174632
-0.216378
0.176127
-0.219596
0.176516
-0.216517
0.176204
-0.208835
0.175529
-0.197967
0.174755
-0.185047
0.174068
-0.170961
0.173588
-0.156385
0.173379
-0.141826
0.173461
-0.127654
0.173826
-0.114129
0.174439
-0.101416
0.175257
-0.0896104
0.176228
-0.0787439
0.177297
-0.0688045
0.178416
-0.0597449
0.179537
-0.0514924
0.180622
-0.0439574
-0.0370316
0.207472
0.00512027
0.207103
0.0101788
0.206548
0.0153132
0.205803
0.0205624
0.204867
0.0258349
0.203748
0.0309999
0.202457
0.0359495
0.201013
0.040628
0.199435
0.0450383
0.197742
0.0492342
0.195955
0.0533046
0.194091
0.0573574
0.192167
0.0615069
0.190199
0.065866
0.188203
0.0705433
0.186197
0.0756427
0.184202
0.0812663
0.182239
0.0875186
0.18034
0.0945115
0.17854
0.102371
0.176887
0.111246
0.175443
0.12132
0.174287
0.132832
0.173529
0.146104
0.17333
0.161593
0.173957
0.179989
0.176003
0.202316
0.181695
0.229643
0.205195
0.258118
0.272419
0.314673
0.212514
0.00528373
0.212183
0.0105035
0.211687
0.0158013
0.211023
0.0212162
0.210191
0.0266521
0.2092
0.0319715
0.208062
0.0370603
0.206797
0.0418581
0.205425
0.0463651
0.203968
0.0506338
0.202449
0.0547525
0.200889
0.0588289
0.199313
0.0629768
0.197744
0.0673079
0.196209
0.071928
0.194739
0.076937
0.193372
0.0824306
0.192155
0.0885037
0.19115
0.095255
0.190435
0.102792
0.190122
0.111234
0.190366
0.120722
0.191389
0.131425
0.193536
0.143549
0.197382
0.157318
0.203998
0.172934
0.215507
0.190372
0.235677
0.209071
0.265858
0.227622
0.243087
0.295034
0.21768
0.00542595
0.217391
0.0107856
0.216961
0.0162242
0.216385
0.0217811
0.215667
0.0273555
0.214815
0.0328036
0.213843
0.0380052
0.212771
0.0428952
0.21162
0.0474704
0.210416
0.0517812
0.209182
0.0559146
0.207947
0.0599767
0.206739
0.0640792
0.20559
0.0683306
0.204537
0.0728321
0.203624
0.0776764
0.202906
0.0829489
0.202451
0.0887305
0.202349
0.0950996
0.202717
0.102137
0.203713
0.109922
0.20556
0.118531
0.208573
0.128044
0.21321
0.138522
0.22015
0.149974
0.230383
0.162292
0.245155
0.175202
0.265575
0.188288
0.29173
0.201178
0.210407
0.324257
0.222972
0.00554511
0.22273
0.0110213
0.222369
0.0165766
0.22189
0.0222497
0.221294
0.027936
0.220592
0.0334855
0.219799
0.0387724
0.218932
0.0437264
0.218017
0.0483406
0.217079
0.0526625
0.216147
0.0567766
0.215251
0.0607865
0.214426
0.0648005
0.21371
0.068922
0.213151
0.0732459
0.212802
0.0778557
0.212732
0.0828239
0.213027
0.088214
0.213796
0.0940814
0.215182
0.100474
0.217372
0.107428
0.220614
0.114962
0.225241
0.12307
0.231693
0.131708
0.240537
0.140759
0.252456
0.150005
0.268219
0.159091
0.288783
0.167416
0.315566
0.174161
0.176873
0.348981
0.228393
0.00563996
0.228199
0.0112083
0.227913
0.0168546
0.227535
0.022617
0.227069
0.0283868
0.226526
0.0340089
0.22592
0.0393517
0.225271
0.0443403
0.224604
0.0489634
0.223946
0.0532651
0.223327
0.0573267
0.222781
0.061248
0.222348
0.0651325
0.222072
0.0690778
0.222006
0.0731708
0.222214
0.0774845
0.222773
0.0820775
0.22378
0.0869953
0.225354
0.0922698
0.227649
0.0979173
0.230858
0.103935
0.235221
0.110294
0.241042
0.116929
0.248693
0.123728
0.258616
0.130505
0.271322
0.136978
0.287391
0.142727
0.307441
0.147116
0.33203
0.149392
0.14867
0.360151
0.233946
0.00570864
0.233804
0.0113431
0.233597
0.0170534
0.233327
0.0228768
0.232998
0.0287011
0.232621
0.0343662
0.232211
0.0397354
0.231789
0.0447288
0.231378
0.0493309
0.231007
0.0535818
0.230708
0.0575586
0.230518
0.0613567
0.230479
0.0650744
0.230639
0.0688026
0.231056
0.0726191
0.231798
0.0765863
0.232949
0.0807493
0.234607
0.0851367
0.236896
0.089759
0.239963
0.0946066
0.24399
0.0996465
0.24919
0.104815
0.255818
0.110012
0.264166
0.115087
0.274555
0.119827
0.287318
0.123941
0.302759
0.127041
0.321044
0.128632
0.342128
0.128174
0.125363
0.365378
0.239634
0.00575031
0.239546
0.0114238
0.239421
0.0171702
0.239262
0.0230252
0.239075
0.0288739
0.23887
0.0345515
0.238663
0.0399167
0.238474
0.0448852
0.238326
0.0494369
0.238248
0.0536077
0.238273
0.05747
0.238437
0.0611141
0.238786
0.0646325
0.239371
0.068109
0.240249
0.0716132
0.241493
0.0751969
0.243183
0.0788931
0.245419
0.0827159
0.248314
0.0866587
0.252005
0.0906931
0.256648
0.0947657
0.26242
0.0987934
0.269517
0.102659
0.278144
0.106203
0.288504
0.10922
0.300764
0.111451
0.315018
0.112587
0.331219
0.112274
0.349156
0.110137
0.106074
0.368406
0.24546
0.00576366
0.245429
0.011448
0.245389
0.0172015
0.245346
0.0230583
0.245304
0.0289008
0.245277
0.0345605
0.245277
0.0398921
0.245324
0.0448067
0.245441
0.04928
0.245655
0.0533431
0.246
0.0570639
0.246514
0.0605272
0.247239
0.0638195
0.248228
0.067018
0.249539
0.0701843
0.251239
0.0733612
0.253408
0.0765718
0.256136
0.0798188
0.259525
0.0830839
0.263691
0.0863269
0.268761
0.0894837
0.27487
0.0924646
0.282154
0.0951512
0.290743
0.097395
0.300737
0.0990165
0.312191
0.0998071
0.325081
0.0995364
0.339269
0.0979643
0.354475
0.094856
0.090217
0.370305
0.251427
0.00574808
0.251453
0.0114145
0.251501
0.0171457
0.251576
0.0229737
0.251683
0.0287792
0.251835
0.0343905
0.252045
0.0396591
0.252329
0.044492
0.252711
0.0488607
0.253215
0.0527917
0.253874
0.0563477
0.254724
0.0596083
0.255808
0.0626544
0.257175
0.0655568
0.25888
0.0683704
0.260987
0.0711309
0.263567
0.0738539
0.266699
0.0765345
0.27047
0.0791476
0.274973
0.0816478
0.280302
0.0839688
0.286553
0.0860235
0.29381
0.0877039
0.302138
0.0888819
0.311569
0.0894124
0.322084
0.0891381
0.333594
0.0878987
0.345921
0.0855437
0.358777
0.081945
0.0771567
0.371818
0.257537
0.00570341
0.257622
0.0113232
0.257758
0.0170024
0.25795
0.0227715
0.258207
0.0285092
0.258538
0.0340421
0.258956
0.0392189
0.259476
0.0439434
0.260118
0.0481831
0.260906
0.05196
0.261869
0.0553319
0.263041
0.0583734
0.264461
0.0611599
0.266175
0.0637568
0.268233
0.0662136
0.270693
0.0685607
0.273615
0.0708089
0.277066
0.0729494
0.281114
0.0749547
0.285829
0.0767795
0.291278
0.0783614
0.297518
0.0796223
0.304592
0.0804703
0.312519
0.0808021
0.321284
0.0805076
0.330824
0.0794757
0.341021
0.0776028
0.35169
0.0748036
0.362577
0.0710196
0.066323
0.3734
0.263796
0.00562922
0.26394
0.0111732
0.264163
0.0167712
0.264474
0.0224512
0.264879
0.0280913
0.265388
0.0335168
0.266012
0.0385746
0.266763
0.043166
0.267658
0.047255
0.268718
0.0508592
0.26997
0.054032
0.271443
0.0568431
0.273172
0.0593632
0.275199
0.0616532
0.277566
0.0637586
0.280323
0.0657063
0.283519
0.0675048
0.287208
0.0691444
0.291439
0.0705987
0.296262
0.0718264
0.301717
0.0727729
0.307833
0.0733729
0.31462
0.0735525
0.322066
0.0732334
0.330125
0.0723369
0.338716
0.07079
0.347713
0.0685318
0.356945
0.0655211
0.366198
0.0617423
0.0572712
0.375247
0.270205
0.00552601
0.270406
0.0109656
0.270717
0.0164533
0.271144
0.0220149
0.271695
0.0275281
0.272379
0.0328182
0.273203
0.0377314
0.274177
0.042167
0.275316
0.046086
0.276637
0.0495024
0.27816
0.0524653
0.279911
0.0550402
0.281921
0.0572935
0.284223
0.0592827
0.286855
0.0610504
0.289854
0.0626219
0.293261
0.0640051
0.297115
0.0651918
0.301449
0.0661595
0.306294
0.0668732
0.311668
0.0672884
0.317579
0.0673533
0.324015
0.0670123
0.330943
0.0662093
0.338303
0.0648921
0.346005
0.0630169
0.353931
0.0605531
0.36193
0.0574883
0.369829
0.0538317
0.0496548
0.377449
0.276768
0.00539368
0.277027
0.0107004
0.277424
0.0160492
0.277967
0.0214636
0.278662
0.0268221
0.279516
0.0319507
0.280534
0.0366958
0.281723
0.0409557
0.283093
0.044689
0.284656
0.0479065
0.286429
0.0506532
0.288433
0.0529909
0.290691
0.0549826
0.293232
0.0566831
0.296083
0.0581333
0.299274
0.0593582
0.302834
0.0603669
0.306788
0.0611543
0.311158
0.0617029
0.315957
0.0619858
0.321189
0.0619686
0.326843
0.0616132
0.332894
0.0608802
0.339298
0.0597325
0.345988
0.0581386
0.352879
0.056076
0.359862
0.0535349
0.366811
0.0505204
0.373585
0.0470547
0.0432021
0.380048
0.283487
0.00523357
0.283802
0.0103801
0.284282
0.0155628
0.284936
0.0208025
0.285768
0.0259795
0.286785
0.0309216
0.287988
0.0354769
0.28938
0.0395433
0.290968
0.0430778
0.292757
0.0460882
0.29476
0.0486164
0.29699
0.0507204
0.299467
0.0524606
0.30221
0.0538898
0.305239
0.055048
0.308576
0.0559609
0.312238
0.0566398
0.31624
0.0570835
0.320593
0.0572806
0.325296
0.0572121
0.330342
0.0568537
0.335709
0.0561795
0.341364
0.055164
0.347258
0.053785
0.353326
0.0520267
0.359486
0.0498817
0.365647
0.0473532
0.371703
0.0444565
0.377543
0.0412197
0.0376984
0.383061
0.290369
0.00504624
0.290738
0.0100061
0.291298
0.0149963
0.292058
0.0200355
0.293023
0.0250059
0.294194
0.0297389
0.295572
0.0340848
0.297155
0.0379426
0.298944
0.0412681
0.30094
0.0440668
0.303149
0.0463775
0.30558
0.0482554
0.308244
0.0497582
0.311154
0.0509372
0.314323
0.0518324
0.317764
0.0524705
0.321485
0.0528658
0.325492
0.0530213
0.329786
0.0529317
0.334358
0.0525854
0.339191
0.0519675
0.344259
0.0510622
0.349524
0.0498552
0.354935
0.0483359
0.360432
0.0464997
0.365945
0.044349
0.371392
0.0418952
0.376691
0.0391585
0.381753
0.0361687
0.0329726
0.386496
0.297415
0.00483292
0.297835
0.00958086
0.298472
0.0143537
0.299334
0.0191677
0.300423
0.0239084
0.30174
0.0284114
0.303282
0.0325308
0.305042
0.0361671
0.307016
0.0392761
0.3092
0.0418613
0.311594
0.0439588
0.3142
0.045621
0.317023
0.0469034
0.320068
0.0478564
0.323343
0.0485197
0.326851
0.0489216
0.330596
0.0490793
0.334574
0.0490001
0.338779
0.0486842
0.343196
0.0481268
0.347804
0.0473208
0.352572
0.0462587
0.357461
0.0449348
0.362425
0.0433472
0.367408
0.0414985
0.372349
0.0393978
0.377181
0.0370604
0.381837
0.0345086
0.386249
0.031771
0.028887
0.390354
0.304629
0.00459519
0.305098
0.00910756
0.305807
0.0136398
0.306763
0.0182061
0.307968
0.0226957
0.309421
0.0269499
0.311113
0.0308275
0.313036
0.0342317
0.315178
0.0371188
0.31753
0.0394907
0.320087
0.0413814
0.322843
0.0428405
0.325799
0.0439218
0.328953
0.0446741
0.332304
0.0451376
0.335852
0.0453418
0.339592
0.0453064
0.343517
0.0450428
0.347613
0.0445558
0.351863
0.0438465
0.356241
0.0429139
0.360718
0.0417571
0.365256
0.0403769
0.369811
0.0387769
0.374335
0.0369649
0.378776
0.0349534
0.38308
0.0327596
0.387192
0.0304057
0.391061
0.027918
0.0253292
0.394637
0.312015
0.00433417
0.312531
0.00858852
0.313308
0.0128584
0.314353
0.0171558
0.315668
0.0213749
0.317246
0.0253637
0.319078
0.0289866
0.321148
0.0321506
0.323441
0.0348129
0.325942
0.0369744
0.32864
0.0386667
0.331524
0.0399373
0.334587
0.0408375
0.337823
0.0414153
0.341227
0.0417105
0.34479
0.0417538
0.348504
0.0415672
0.352357
0.0411651
0.356333
0.0405565
0.360411
0.0397468
0.364566
0.0387398
0.368767
0.0375395
0.372981
0.0361511
0.377167
0.034582
0.381286
0.032843
0.385292
0.0309481
0.389143
0.0289149
0.392796
0.026764
0.396211
0.0245191
0.0222072
0.39935
0.319579
0.00405122
0.320138
0.0080265
0.320979
0.0120135
0.322108
0.0160226
0.323524
0.0199535
0.325219
0.0236619
0.327179
0.0270192
0.329384
0.0299367
0.331813
0.0323731
0.334446
0.0343287
0.337266
0.035833
0.340258
0.0369307
0.343408
0.037671
0.346705
0.0381003
0.350139
0.038258
0.353699
0.0381756
0.357371
0.0378764
0.361141
0.0373773
0.364991
0.0366903
0.368898
0.0358243
0.372839
0.0347866
0.376784
0.0335843
0.380703
0.0322257
0.384561
0.0307204
0.388324
0.0290807
0.391955
0.0273208
0.39542
0.0254575
0.398686
0.0235098
0.401722
0.0214981
0.0194445
0.4045
0.327323
0.00374855
0.327921
0.00742578
0.328819
0.0111119
0.330023
0.0148154
0.331529
0.0184423
0.333329
0.0218573
0.335402
0.0249394
0.337726
0.0276052
0.340275
0.0298155
0.343024
0.0315702
0.345949
0.0328966
0.349031
0.0338368
0.352252
0.0344375
0.355596
0.0347432
0.359048
0.0347924
0.362593
0.0346165
0.366216
0.0342398
0.369901
0.0336807
0.373626
0.0329533
0.377372
0.0320687
0.381114
0.0310366
0.384827
0.0298663
0.388482
0.0285674
0.392051
0.0271511
0.395505
0.0256295
0.398815
0.0240167
0.401952
0.0223281
0.404893
0.0205804
0.407613
0.0187911
0.0169785
0.410092
0.335253
0.00342662
0.335889
0.00678758
0.336842
0.0101554
0.338117
0.0135374
0.33971
0.0168464
0.341606
0.0199567
0.343784
0.0227562
0.346216
0.0251673
0.348871
0.0271531
0.351721
0.0287133
0.354736
0.0298731
0.357892
0.0306716
0.361167
0.0311526
0.364542
0.0313583
0.367999
0.0313258
0.37152
0.0310858
0.375088
0.0306627
0.378684
0.0300757
0.38229
0.0293402
0.385884
0.0284685
0.389445
0.0274717
0.392948
0.0263601
0.396371
0.0251442
0.399689
0.0238352
0.402877
0.022445
0.405913
0.0209866
0.408775