/*--------------------------------*- C++ -*----------------------------------*\
| =========                 |                                                 |
| \\      /  F ield         | OpenFOAM: The Open Source CFD Toolbox           |
|  \\    /   O peration     | Version:  2012                                  |
|   \\  /    A nd           | Website:  www.openfoam.com                      |
|    \\/     M anipulation  |                                                 |
\*---------------------------------------------------------------------------*/
FoamFile
{
    version     2.0;
    format      ascii;
    class       pointVectorField;
    location    "0.3";
    object      pointDisplacement;
}
// * * * * * * * * * * * * * * * * * * * * * * * * * * * * * * * * * * * * * //

dimensions      [0 1 0 0 0 0 0];


internalField   nonuniform List<vector> 
5828
(
(0 0 0)
(1.26095e-05 0 0)
(2.71781e-05 0 0)
(4.70242e-05 0 0)
(7.57704e-05 0 0)
(0.000117622 0 0)
(0.000177708 0 0)
(0.000262245 0 0)
(0.00037858 0 0)
(0.000535101 0 0)
(0.000740977 0 0)
(0.00100569 0 0)
(0.00133837 0 0)
(0.00174676 0 0)
(0.00223608 0 0)
(0.00280738 0 0)
(0.00345581 0 0)
(0.00416857 0 0)
(0.00492284 0 0)
(0.00568394 0 0)
(0.00640404 0 0)
(0.00702202 0 0)
(0.00746534 0 0)
(0.00765453 0 0)
(0.00751144 0 0)
(0.00697219 0 0)
(0.00600633 0 0)
(0.00464587 0 0)
(0.00303523 0 0)
(0.00154674 0 0)
(-1.28878e-17 0 0)
(0 0 0)
(1.22125e-05 0 1.64997e-07)
(2.63897e-05 0 3.56694e-07)
(4.57611e-05 0 6.19688e-07)
(7.38726e-05 0 1.00367e-06)
(0.000114877 0 1.56759e-06)
(0.000173853 0 2.38483e-06)
(0.000256976 0 3.54666e-06)
(0.000371566 0 5.16496e-06)
(0.000526008 0 7.37433e-06)
(0.000729505 0 1.03341e-05)
(0.000991635 0 1.42311e-05)
(0.00132168 0 1.92845e-05)
(0.00172767 0 2.57546e-05)
(0.00221523 0 3.39579e-05)
(0.00278599 0 4.42922e-05)
(0.0034359 0 5.72737e-05)
(0.00415324 0 7.35903e-05)
(0.00491658 0 9.41745e-05)
(0.00569297 0 0.000120299)
(0.00643669 0 0.000153697)
(0.00708914 0 0.000196716)
(0.00758065 0 0.000252495)
(0.007835 0 0.000325158)
(0.00777773 0 0.000419966)
(0.0073492 0 0.000543267)
(0.0065241 0 0.000701797)
(0.00534094 0 0.000900012)
(0.00395065 0 0.00113137)
(0.00271304 0 0.00135162)
(0.00179892 0 0.0015855)
(0 0 0)
(1.17176e-05 0 3.23511e-07)
(2.54116e-05 0 7.00301e-07)
(4.41969e-05 0 1.21795e-06)
(7.15287e-05 0 1.97425e-06)
(0.000111501 0 3.08565e-06)
(0.000169145 0 4.69713e-06)
(0.000250608 0 6.98903e-06)
(0.000363218 0 1.01822e-05)
(0.000515424 0 1.45416e-05)
(0.000716581 0 2.03802e-05)
(0.000976546 0 2.80629e-05)
(0.00130505 0 3.80146e-05)
(0.00171085 0 5.07357e-05)
(0.00220055 0 6.68286e-05)
(0.00277727 0 8.70424e-05)
(0.00343894 0 0.00011234)
(0.00417651 0 0.000143996)
(0.00497205 0 0.000183725)
(0.00579706 0 0.00023385)
(0.00661131 0 0.000297514)
(0.00736285 0 0.000378921)
(0.00798978 0 0.000483601)
(0.00842473 0 0.000618632)
(0.00860304 0 0.000792647)
(0.00847547 0 0.00101522)
(0.00802673 0 0.00129466)
(0.0073014 0 0.00163199)
(0.00644029 0 0.00200731)
(0.00573318 0 0.00235157)
(0.00518172 0 0.00262882)
(0 0 0)
(1.15354e-05 0 4.75502e-07)
(2.50553e-05 0 1.03047e-06)
(4.3632e-05 0 1.79348e-06)
(7.06988e-05 0 2.90843e-06)
(0.000110343 0 4.54699e-06)
(0.00016761 0 6.9228e-06)
(0.000248692 0 1.03012e-05)
(0.000361012 0 1.50064e-05)
(0.000513192 0 2.14259e-05)
(0.00071488 0 3.00142e-05)
(0.00097639 0 4.12969e-05)
(0.00130815 0 5.58789e-05)
(0.00171994 0 7.44614e-05)
(0.00221985 0 9.78741e-05)
(0.00281302 0 0.000127131)
(0.00350022 0 0.000163515)
(0.00427617 0 0.000208701)
(0.00512788 0 0.000264921)
(0.00603316 0 0.00033517)
(0.00695971 0 0.00042345)
(0.0078651 0 0.000535037)
(0.00869859 0 0.000676719)
(0.00940525 0 0.000856889)
(0.00993328 0 0.00108522)
(0.0102449 0 0.00137131)
(0.0103305 0 0.00172106)
(0.0102241 0 0.00212824)
(0.0100173 0 0.00255775)
(0.00987083 0 0.00291925)
(0.00970131 0 0.00316896)
(0 0 0)
(1.13798e-05 0 6.21603e-07)
(2.47453e-05 0 1.34795e-06)
(4.31426e-05 0 2.34659e-06)
(6.9992e-05 0 3.80515e-06)
(0.000109386 0 5.94756e-06)
(0.000166404 0 9.05211e-06)
(0.000247309 0 1.34635e-05)
(0.000359666 0 1.96009e-05)
(0.000512339 0 2.79629e-05)
(0.000715366 0 3.91286e-05)
(0.000979667 0 5.37595e-05)
(0.00131658 0 7.26038e-05)
(0.0017372 0 9.6509e-05)
(0.00225148 0 0.000126452)
(0.0028672 0 0.000163594)
(0.00358864 0 0.000209368)
(0.00441526 0 0.000265607)
(0.00534021 0 0.000334714)
(0.00634914 0 0.00041987)
(0.00741936 0 0.000525272)
(0.0085199 0 0.000656344)
(0.00961301 0 0.000819878)
(0.0106574 0 0.00102391)
(0.0116141 0 0.00127705)
(0.0124532 0 0.00158655)
(0.0131623 0 0.00195396)
(0.0137481 0 0.00236625)
(0.0142282 0 0.00277997)
(0.014618 0 0.00310221)
(0.0147665 0 0.00330191)
(0 0 0)
(1.12467e-05 0 7.60862e-07)
(2.44778e-05 0 1.65037e-06)
(4.27221e-05 0 2.87263e-06)
(6.93949e-05 0 4.65616e-06)
(0.000108604 0 7.27339e-06)
(0.000165472 0 1.10621e-05)
(0.00024636 0 1.6439e-05)
(0.000359003 0 2.39084e-05)
(0.000512556 0 3.40652e-05)
(0.000717517 0 4.75926e-05)
(0.000985516 0 6.52584e-05)
(0.00132894 0 8.79101e-05)
(0.0017604 0 0.000116478)
(0.00229201 0 0.000151995)
(0.00293447 0 0.000195634)
(0.00369611 0 0.000248786)
(0.00458165 0 0.000313171)
(0.00559108 0 0.00039099)
(0.00671861 0 0.000485106)
(0.00795193 0 0.000599225)
(0.00927215 0 0.000738042)
(0.0106547 0 0.000907242)
(0.0120711 0 0.0011132)
(0.0134925 0 0.00136209)
(0.0148923 0 0.00165779)
(0.0162462 0 0.0019979)
(0.0175224 0 0.00236609)
(0.0186546 0 0.00271976)
(0.0195153 0 0.00297773)
(0.0199333 0 0.00312757)
(0 0 0)
(1.11334e-05 0 8.92483e-07)
(2.42488e-05 0 1.93576e-06)
(4.23633e-05 0 3.36779e-06)
(6.8892e-05 0 5.45458e-06)
(0.000107963 0 8.51276e-06)
(0.000164753 0 1.29335e-05)
(0.000245729 0 1.91973e-05)
(0.000358817 0 2.78818e-05)
(0.000513487 0 3.96619e-05)
(0.000720736 0 5.53025e-05)
(0.000992953 0 7.56449e-05)
(0.00134365 0 0.00010159)
(0.00178704 0 0.000134086)
(0.0023375 0 0.000174123)
(0.00300886 0 0.000222754)
(0.00381356 0 0.000281137)
(0.00476179 0 0.000350619)
(0.00586049 0 0.000432847)
(0.00711245 0 0.000529899)
(0.00851555 0 0.000644412)
(0.0100624 0 0.000779641)
(0.0117402 0 0.000939373)
(0.0135313 0 0.00112754)
(0.0154133 0 0.00134731)
(0.0173574 0 0.00159937)
(0.0193213 0 0.00187883)
(0.0212298 0 0.00217)
(0.0229337 0 0.00243801)
(0.0241768 0 0.00262113)
(0.024796 0 0.00272246)
(0 0 0)
(1.10381e-05 0 1.01588e-06)
(2.4055e-05 0 2.20268e-06)
(4.20589e-05 0 3.82917e-06)
(6.84676e-05 0 6.19522e-06)
(0.000107431 0 9.65673e-06)
(0.000164183 0 1.46516e-05)
(0.000245297 0 2.1715e-05)
(0.000358892 0 3.14856e-05)
(0.000514756 0 4.47012e-05)
(0.000724387 0 6.21849e-05)
(0.00100093 0 8.48194e-05)
(0.00135903 0 0.000113515)
(0.00181448 0 0.000149173)
(0.00238388 0 0.000192657)
(0.0030841 0 0.000244776)
(0.0039316 0 0.000306291)
(0.00494179 0 0.000377952)
(0.00612816 0 0.000460564)
(0.00750143 0 0.000555064)
(0.00906869 0 0.000662596)
(0.0108325 0 0.000784517)
(0.0127897 0 0.000922289)
(0.0149304 0 0.00107713)
(0.0172345 0 0.00124932)
(0.0196667 0 0.00143704)
(0.0221634 0 0.00163462)
(0.0246057 0 0.00182979)
(0.0267705 0 0.00199912)
(0.0282954 0 0.00210403)
(0.0290496 0 0.00215509)
(0 0 0)
(1.09597e-05 0 1.13074e-06)
(2.38936e-05 0 2.45028e-06)
(4.18026e-05 0 4.25501e-06)
(6.81069e-05 0 6.87473e-06)
(0.000106978 0 1.06994e-05)
(0.000163698 0 1.62068e-05)
(0.000244945 0 2.39772e-05)
(0.000359015 0 3.46973e-05)
(0.000515994 0 4.91514e-05)
(0.000727848 0 6.81981e-05)
(0.00100844 0 9.27321e-05)
(0.00137343 0 0.000123633)
(0.00184013 0 0.000161703)
(0.00242716 0 0.000207606)
(0.00315417 0 0.000261814)
(0.00404127 0 0.000324565)
(0.00510849 0 0.000395854)
(0.00637508 0 0.000475447)
(0.00785855 0 0.000562919)
(0.00957361 0 0.000657687)
(0.0115306 0 0.000759023)
(0.0137335 0 0.000865979)
(0.0161765 0 0.000977196)
(0.0188387 0 0.00109055)
(0.0216746 0 0.00120269)
(0.0245981 0 0.00130851)
(0.0274509 0 0.00140072)
(0.0299493 0 0.00146886)
(0.0316544 0 0.0014986)
(0.0324784 0 0.00150549)
(0 0 0)
(1.08979e-05 0 1.23703e-06)
(2.37636e-05 0 2.67837e-06)
(4.15903e-05 0 4.64472e-06)
(6.77986e-05 0 7.49177e-06)
(0.000106575 0 1.16383e-05)
(0.000163245 0 1.75946e-05)
(0.000244568 0 2.59768e-05)
(0.000358994 0 3.75073e-05)
(0.000516863 0 5.30008e-05)
(0.000730549 0 7.33313e-05)
(0.00101453 0 9.93799e-05)
(0.00138537 0 0.000131963)
(0.00186165 0 0.000171746)
(0.00246377 0 0.000219143)
(0.00321371 0 0.000274227)
(0.00413463 0 0.000336639)
(0.00525042 0 0.000405536)
(0.00658493 0 0.000479559)
(0.00816103 0 0.000556842)
(0.00999914 0 0.000635041)
(0.0121151 0 0.000711383)
(0.0145171 0 0.000782706)
(0.0172005 0 0.000845487)
(0.0201405 0 0.000895895)
(0.0232798 0 0.000929967)
(0.0265103 0 0.000944203)
(0.0296401 0 0.000936951)
(0.0323422 0 0.000910494)
(0.0341327 0 0.000873145)
(0.0349693 0 0.000841381)
(0 0 0)
(1.08532e-05 0 1.33503e-06)
(2.36654e-05 0 2.88744e-06)
(4.14207e-05 0 4.99895e-06)
(6.75365e-05 0 8.04706e-06)
(0.000106207 0 1.24741e-05)
(0.000162782 0 1.8816e-05)
(0.000244083 0 2.77153e-05)
(0.000358674 0 3.99187e-05)
(0.00051709 0 5.62567e-05)
(0.000732021 0 7.76017e-05)
(0.00101843 0 0.000104801)
(0.0013936 0 0.000138587)
(0.00187712 0 0.000179461)
(0.00249076 0 0.000227564)
(0.00325833 0 0.000282545)
(0.00420533 0 0.000343434)
(0.0053585 0 0.000408541)
(0.00674507 0 0.000475402)
(0.00839165 0 0.000540771)
(0.0103224 0 0.000600674)
(0.0125564 0 0.000650534)
(0.0151036 0 0.000685352)
(0.0179581 0 0.000700001)
(0.0210895 0 0.000689667)
(0.0244286 0 0.000650614)
(0.0278471 0 0.000581612)
(0.0311275 0 0.000486664)
(0.0339146 0 0.000379391)
(0.0357092 0 0.000287106)
(0.0365047 0 0.000224713)
(0 0 0)
(1.08273e-05 0 1.42532e-06)
(2.36019e-05 0 3.07867e-06)
(4.12967e-05 0 5.31956e-06)
(6.73209e-05 0 8.5434e-06)
(0.000105865 0 1.32109e-05)
(0.000162288 0 1.98769e-05)
(0.000243441 0 2.92018e-05)
(0.00035795 0 4.19459e-05)
(0.000516478 0 5.89432e-05)
(0.000731922 0 8.10506e-05)
(0.00101957 0 0.000109068)
(0.00139721 0 0.000143629)
(0.0018851 0 0.000185064)
(0.00250598 0 0.000233241)
(0.00328488 0 0.000287398)
(0.00424885 0 0.000345984)
(0.00542647 0 0.000406533)
(0.00684705 0 0.000465586)
(0.00853933 0 0.000518699)
(0.0105294 0 0.000560535)
(0.0128377 0 0.000585083)
(0.0154737 0 0.000586005)
(0.0184295 0 0.000557169)
(0.0216685 0 0.000493429)
(0.0251109 0 0.000391853)
(0.028613 0 0.00025375)
(0.0319383 0 8.82687e-05)
(0.0347174 0 -8.17305e-05)
(0.0364564 0 -0.000214433)
(0.0371736 0 -0.000294481)
(0 0 0)
(1.0823e-05 0 1.5088e-06)
(2.35783e-05 0 3.25394e-06)
(4.12258e-05 0 5.60964e-06)
(6.71604e-05 0 8.9855e-06)
(0.000105558 0 1.38558e-05)
(0.000161764 0 2.07879e-05)
(0.000242624 0 3.04524e-05)
(0.000356779 0 4.36136e-05)
(0.00051493 0 6.10986e-05)
(0.000730065 0 8.37382e-05)
(0.00101763 0 0.000112276)
(0.00139565 0 0.000147245)
(0.00188476 0 0.000188809)
(0.00250818 0 0.000236581)
(0.00329156 0 0.000289434)
(0.0042627 0 0.000345315)
(0.00545102 0 0.000401105)
(0.00688667 0 0.00045254)
(0.00859909 0 0.000494241)
(0.0106147 0 0.000519872)
(0.0129537 0 0.000522451)
(0.0156242 0 0.00049485)
(0.0186156 0 0.000430518)
(0.0218866 0 0.000324505)
(0.0253506 0 0.000174963)
(0.0288543 0 -1.44629e-05)
(0.0321504 0 -0.000230554)
(0.0348627 0 -0.000443809)
(0.0365124 0 -0.000602874)
(0.037141 0 -0.000695545)
(0 0 0)
(1.08444e-05 0 1.58668e-06)
(2.3603e-05 0 3.41574e-06)
(4.12206e-05 0 5.87336e-06)
(6.70723e-05 0 9.37987e-06)
(0.000105306 0 1.44186e-05)
(0.000161235 0 2.15639e-05)
(0.00024166 0 3.14891e-05)
(0.000355179 0 4.49546e-05)
(0.00051245 0 6.2772e-05)
(0.000726427 0 8.57388e-05)
(0.00101253 0 0.000114539)
(0.00138879 0 0.000149606)
(0.00187586 0 0.000190955)
(0.002497 0 0.000237982)
(0.0032779 0 0.000289261)
(0.00424636 0 0.000342346)
(0.0054317 0 0.000393629)
(0.00686379 0 0.000438278)
(0.00857153 0 0.000470301)
(0.0105804 0 0.000482774)
(0.0129091 0 0.000468249)
(0.0155641 0 0.000419373)
(0.0185324 0 0.000329744)
(0.0217708 0 0.000195038)
(0.0251914 0 1.45799e-05)
(0.0286406 0 -0.00020625)
(0.0318694 0 -0.000451844)
(0.0344971 0 -0.000689204)
(0.0360509 0 -0.000861909)
(0.0365769 0 -0.000958404)
(0 0 0)
(1.08972e-05 0 1.66041e-06)
(2.36875e-05 0 3.56716e-06)
(4.12996e-05 0 6.11593e-06)
(6.70837e-05 0 9.73466e-06)
(0.000105149 0 1.49118e-05)
(0.000160751 0 2.22233e-05)
(0.000240616 0 3.23392e-05)
(0.00035324 0 4.60088e-05)
(0.000509154 0 6.40214e-05)
(0.000721152 0 8.7136e-05)
(0.00100447 0 0.000115976)
(0.00137688 0 0.000150886)
(0.00185876 0 0.000191754)
(0.00247298 0 0.000237808)
(0.00324473 0 0.000287401)
(0.00420112 0 0.000337821)
(0.00537057 0 0.000385156)
(0.00678174 0 0.000424262)
(0.00846194 0 0.000448871)
(0.0104348 0 0.000451893)
(0.0127166 0 0.000425909)
(0.0153118 0 0.000363888)
(0.018206 0 0.000260109)
(0.021357 0 0.000111295)
(0.0246822 0 -8.19587e-05)
(0.02804 0 -0.000313173)
(0.0311971 0 -0.000566531)
(0.0337747 0 -0.000810505)
(0.0352582 0 -0.000990085)
(0.0356987 0 -0.00108158)
(0 0 0)
(1.09894e-05 0 1.73241e-06)
(2.38478e-05 0 3.71315e-06)
(4.14882e-05 0 6.34542e-06)
(6.72315e-05 0 1.00622e-05)
(0.000105137 0 1.53533e-05)
(0.000160383 0 2.2792e-05)
(0.000239585 0 3.30391e-05)
(0.000351083 0 4.68268e-05)
(0.000505198 0 6.49161e-05)
(0.00071445 0 8.80237e-05)
(0.000993711 0 0.000116714)
(0.0013603 0 0.000151252)
(0.00183399 0 0.000191427)
(0.00243689 0 0.000236344)
(0.00319322 0 0.000284223)
(0.00412882 0 0.000332211)
(0.00527045 0 0.000376277)
(0.00664476 0 0.000411211)
(0.00827666 0 0.000430793)
(0.010187 0 0.000428151)
(0.0123891 0 0.000396339)
(0.0148846 0 0.000329127)
(0.0176581 0 0.000221953)
(0.0206695 0 7.30315e-05)
(0.023845 0 -0.000115398)
(0.0270649 0 -0.000335538)
(0.0301372 0 -0.000571444)
(0.0327515 0 -0.000795024)
(0.0343774 0 -0.000954959)
(0.0346516 0 -0.00109918)
(0 0 0)
(1.26095e-05 0 0)
(2.71781e-05 0 0)
(4.70242e-05 0 0)
(7.57704e-05 0 0)
(0.000117622 0 0)
(0.000177708 0 0)
(0.000262245 0 0)
(0.00037858 0 0)
(0.000535101 0 0)
(0.000740977 0 0)
(0.00100569 0 0)
(0.00133837 0 0)
(0.00174676 0 0)
(0.00223608 0 0)
(0.00280738 0 0)
(0.00345581 0 0)
(0.00416857 0 0)
(0.00492284 0 0)
(0.00568394 0 0)
(0.00640404 0 0)
(0.00702202 0 0)
(0.00746534 0 0)
(0.00765453 0 0)
(0.00751144 0 0)
(0.00697219 0 0)
(0.00600633 0 0)
(0.00464587 0 0)
(0.00303523 0 0)
(0.00154674 0 0)
(-1.04083e-17 0 0)
(0 0 0)
(1.22125e-05 0 1.64997e-07)
(2.63897e-05 0 3.56694e-07)
(4.57611e-05 0 6.19688e-07)
(7.38726e-05 0 1.00367e-06)
(0.000114877 0 1.56759e-06)
(0.000173853 0 2.38483e-06)
(0.000256976 0 3.54666e-06)
(0.000371566 0 5.16496e-06)
(0.000526008 0 7.37433e-06)
(0.000729505 0 1.03341e-05)
(0.000991635 0 1.42311e-05)
(0.00132168 0 1.92845e-05)
(0.00172767 0 2.57546e-05)
(0.00221523 0 3.39579e-05)
(0.00278599 0 4.42922e-05)
(0.0034359 0 5.72737e-05)
(0.00415324 0 7.35903e-05)
(0.00491658 0 9.41745e-05)
(0.00569297 0 0.000120299)
(0.00643669 0 0.000153697)
(0.00708914 0 0.000196716)
(0.00758065 0 0.000252495)
(0.007835 0 0.000325158)
(0.00777773 0 0.000419966)
(0.0073492 0 0.000543267)
(0.0065241 0 0.000701797)
(0.00534094 0 0.000900012)
(0.00395065 0 0.00113137)
(0.00271304 0 0.00135162)
(0.0017988 0 0.0015855)
(0 0 0)
(1.17176e-05 0 3.23511e-07)
(2.54116e-05 0 7.00301e-07)
(4.41969e-05 0 1.21795e-06)
(7.15287e-05 0 1.97425e-06)
(0.000111501 0 3.08565e-06)
(0.000169145 0 4.69713e-06)
(0.000250608 0 6.98903e-06)
(0.000363218 0 1.01822e-05)
(0.000515424 0 1.45416e-05)
(0.000716581 0 2.03802e-05)
(0.000976546 0 2.80629e-05)
(0.00130505 0 3.80146e-05)
(0.00171085 0 5.07357e-05)
(0.00220055 0 6.68286e-05)
(0.00277727 0 8.70424e-05)
(0.00343894 0 0.00011234)
(0.00417651 0 0.000143996)
(0.00497205 0 0.000183725)
(0.00579706 0 0.00023385)
(0.00661131 0 0.000297514)
(0.00736285 0 0.000378921)
(0.00798978 0 0.000483601)
(0.00842473 0 0.000618632)
(0.00860304 0 0.000792647)
(0.00847547 0 0.00101522)
(0.00802673 0 0.00129466)
(0.0073014 0 0.00163199)
(0.00644029 0 0.00200731)
(0.00573318 0 0.00235157)
(0.00518164 0 0.00262884)
(0 0 0)
(1.15354e-05 0 4.75502e-07)
(2.50553e-05 0 1.03047e-06)
(4.3632e-05 0 1.79348e-06)
(7.06988e-05 0 2.90843e-06)
(0.000110343 0 4.54699e-06)
(0.00016761 0 6.9228e-06)
(0.000248692 0 1.03012e-05)
(0.000361012 0 1.50064e-05)
(0.000513192 0 2.14259e-05)
(0.00071488 0 3.00142e-05)
(0.00097639 0 4.12969e-05)
(0.00130815 0 5.58789e-05)
(0.00171994 0 7.44614e-05)
(0.00221985 0 9.78741e-05)
(0.00281302 0 0.000127131)
(0.00350022 0 0.000163515)
(0.00427617 0 0.000208701)
(0.00512788 0 0.000264921)
(0.00603316 0 0.00033517)
(0.00695971 0 0.00042345)
(0.0078651 0 0.000535037)
(0.00869859 0 0.000676719)
(0.00940525 0 0.000856889)
(0.00993328 0 0.00108522)
(0.0102449 0 0.00137131)
(0.0103305 0 0.00172106)
(0.0102241 0 0.00212824)
(0.0100173 0 0.00255775)
(0.00987083 0 0.00291925)
(0.00970122 0 0.00316898)
(0 0 0)
(1.13798e-05 0 6.21603e-07)
(2.47453e-05 0 1.34795e-06)
(4.31426e-05 0 2.34659e-06)
(6.9992e-05 0 3.80515e-06)
(0.000109386 0 5.94756e-06)
(0.000166404 0 9.05211e-06)
(0.000247309 0 1.34635e-05)
(0.000359666 0 1.96009e-05)
(0.000512339 0 2.79629e-05)
(0.000715366 0 3.91286e-05)
(0.000979667 0 5.37595e-05)
(0.00131658 0 7.26038e-05)
(0.0017372 0 9.6509e-05)
(0.00225148 0 0.000126452)
(0.0028672 0 0.000163594)
(0.00358864 0 0.000209368)
(0.00441526 0 0.000265607)
(0.00534021 0 0.000334714)
(0.00634914 0 0.00041987)
(0.00741936 0 0.000525272)
(0.0085199 0 0.000656344)
(0.00961301 0 0.000819878)
(0.0106574 0 0.00102391)
(0.0116141 0 0.00127705)
(0.0124532 0 0.00158655)
(0.0131623 0 0.00195396)
(0.0137481 0 0.00236625)
(0.0142282 0 0.00277997)
(0.014618 0 0.00310221)
(0.0147664 0 0.00330191)
(0 0 0)
(1.12467e-05 0 7.60862e-07)
(2.44778e-05 0 1.65037e-06)
(4.27221e-05 0 2.87263e-06)
(6.93949e-05 0 4.65616e-06)
(0.000108604 0 7.27339e-06)
(0.000165472 0 1.10621e-05)
(0.00024636 0 1.6439e-05)
(0.000359003 0 2.39084e-05)
(0.000512556 0 3.40652e-05)
(0.000717517 0 4.75926e-05)
(0.000985516 0 6.52584e-05)
(0.00132894 0 8.79101e-05)
(0.0017604 0 0.000116478)
(0.00229201 0 0.000151995)
(0.00293447 0 0.000195634)
(0.00369611 0 0.000248786)
(0.00458165 0 0.000313171)
(0.00559108 0 0.00039099)
(0.00671861 0 0.000485106)
(0.00795193 0 0.000599225)
(0.00927215 0 0.000738042)
(0.0106547 0 0.000907242)
(0.0120711 0 0.0011132)
(0.0134925 0 0.00136209)
(0.0148923 0 0.00165779)
(0.0162462 0 0.0019979)
(0.0175224 0 0.00236609)
(0.0186546 0 0.00271976)
(0.0195153 0 0.00297773)
(0.0199332 0 0.00312759)
(0 0 0)
(1.11334e-05 0 8.92483e-07)
(2.42488e-05 0 1.93576e-06)
(4.23633e-05 0 3.36779e-06)
(6.8892e-05 0 5.45458e-06)
(0.000107963 0 8.51276e-06)
(0.000164753 0 1.29335e-05)
(0.000245729 0 1.91973e-05)
(0.000358817 0 2.78818e-05)
(0.000513487 0 3.96619e-05)
(0.000720736 0 5.53025e-05)
(0.000992953 0 7.56449e-05)
(0.00134365 0 0.00010159)
(0.00178704 0 0.000134086)
(0.0023375 0 0.000174123)
(0.00300886 0 0.000222754)
(0.00381356 0 0.000281137)
(0.00476179 0 0.000350619)
(0.00586049 0 0.000432847)
(0.00711245 0 0.000529899)
(0.00851555 0 0.000644412)
(0.0100624 0 0.000779641)
(0.0117402 0 0.000939373)
(0.0135313 0 0.00112754)
(0.0154133 0 0.00134731)
(0.0173574 0 0.00159937)
(0.0193213 0 0.00187883)
(0.0212298 0 0.00217)
(0.0229337 0 0.00243801)
(0.0241768 0 0.00262113)
(0.0247959 0 0.00272249)
(0 0 0)
(1.10381e-05 0 1.01588e-06)
(2.4055e-05 0 2.20268e-06)
(4.20589e-05 0 3.82917e-06)
(6.84676e-05 0 6.19522e-06)
(0.000107431 0 9.65673e-06)
(0.000164183 0 1.46516e-05)
(0.000245297 0 2.1715e-05)
(0.000358892 0 3.14856e-05)
(0.000514756 0 4.47012e-05)
(0.000724387 0 6.21849e-05)
(0.00100093 0 8.48194e-05)
(0.00135903 0 0.000113515)
(0.00181448 0 0.000149173)
(0.00238388 0 0.000192657)
(0.0030841 0 0.000244776)
(0.0039316 0 0.000306291)
(0.00494179 0 0.000377952)
(0.00612816 0 0.000460564)
(0.00750143 0 0.000555064)
(0.00906869 0 0.000662596)
(0.0108325 0 0.000784517)
(0.0127897 0 0.000922289)
(0.0149304 0 0.00107713)
(0.0172345 0 0.00124932)
(0.0196667 0 0.00143704)
(0.0221634 0 0.00163462)
(0.0246057 0 0.00182979)
(0.0267705 0 0.00199912)
(0.0282954 0 0.00210403)
(0.0290495 0 0.00215505)
(0 0 0)
(1.09597e-05 0 1.13074e-06)
(2.38936e-05 0 2.45028e-06)
(4.18026e-05 0 4.25501e-06)
(6.81069e-05 0 6.87473e-06)
(0.000106978 0 1.06994e-05)
(0.000163698 0 1.62068e-05)
(0.000244945 0 2.39772e-05)
(0.000359015 0 3.46973e-05)
(0.000515994 0 4.91514e-05)
(0.000727848 0 6.81981e-05)
(0.00100844 0 9.27321e-05)
(0.00137343 0 0.000123633)
(0.00184013 0 0.000161703)
(0.00242716 0 0.000207606)
(0.00315417 0 0.000261814)
(0.00404127 0 0.000324565)
(0.00510849 0 0.000395854)
(0.00637508 0 0.000475447)
(0.00785855 0 0.000562919)
(0.00957361 0 0.000657687)
(0.0115306 0 0.000759023)
(0.0137335 0 0.000865979)
(0.0161765 0 0.000977196)
(0.0188387 0 0.00109055)
(0.0216746 0 0.00120269)
(0.0245981 0 0.00130851)
(0.0274509 0 0.00140072)
(0.0299493 0 0.00146886)
(0.0316544 0 0.0014986)
(0.0324783 0 0.00150546)
(0 0 0)
(1.08979e-05 0 1.23703e-06)
(2.37636e-05 0 2.67837e-06)
(4.15903e-05 0 4.64472e-06)
(6.77986e-05 0 7.49177e-06)
(0.000106575 0 1.16383e-05)
(0.000163245 0 1.75946e-05)
(0.000244568 0 2.59768e-05)
(0.000358994 0 3.75073e-05)
(0.000516863 0 5.30008e-05)
(0.000730549 0 7.33313e-05)
(0.00101453 0 9.93799e-05)
(0.00138537 0 0.000131963)
(0.00186165 0 0.000171746)
(0.00246377 0 0.000219143)
(0.00321371 0 0.000274227)
(0.00413463 0 0.000336639)
(0.00525042 0 0.000405536)
(0.00658493 0 0.000479559)
(0.00816103 0 0.000556842)
(0.00999914 0 0.000635041)
(0.0121151 0 0.000711383)
(0.0145171 0 0.000782706)
(0.0172005 0 0.000845487)
(0.0201405 0 0.000895895)
(0.0232798 0 0.000929967)
(0.0265103 0 0.000944203)
(0.0296401 0 0.000936951)
(0.0323422 0 0.000910494)
(0.0341327 0 0.000873145)
(0.0349692 0 0.000841407)
(0 0 0)
(1.08532e-05 0 1.33503e-06)
(2.36654e-05 0 2.88744e-06)
(4.14207e-05 0 4.99895e-06)
(6.75365e-05 0 8.04706e-06)
(0.000106207 0 1.24741e-05)
(0.000162782 0 1.8816e-05)
(0.000244083 0 2.77153e-05)
(0.000358674 0 3.99187e-05)
(0.00051709 0 5.62567e-05)
(0.000732021 0 7.76017e-05)
(0.00101843 0 0.000104801)
(0.0013936 0 0.000138587)
(0.00187712 0 0.000179461)
(0.00249076 0 0.000227564)
(0.00325833 0 0.000282545)
(0.00420533 0 0.000343434)
(0.0053585 0 0.000408541)
(0.00674507 0 0.000475402)
(0.00839165 0 0.000540771)
(0.0103224 0 0.000600674)
(0.0125564 0 0.000650534)
(0.0151036 0 0.000685352)
(0.0179581 0 0.000700001)
(0.0210895 0 0.000689667)
(0.0244286 0 0.000650614)
(0.0278471 0 0.000581612)
(0.0311275 0 0.000486664)
(0.0339146 0 0.000379391)
(0.0357092 0 0.000287106)
(0.0365046 0 0.000224733)
(0 0 0)
(1.08273e-05 0 1.42532e-06)
(2.36019e-05 0 3.07867e-06)
(4.12967e-05 0 5.31956e-06)
(6.73209e-05 0 8.5434e-06)
(0.000105865 0 1.32109e-05)
(0.000162288 0 1.98769e-05)
(0.000243441 0 2.92018e-05)
(0.00035795 0 4.19459e-05)
(0.000516478 0 5.89432e-05)
(0.000731922 0 8.10506e-05)
(0.00101957 0 0.000109068)
(0.00139721 0 0.000143629)
(0.0018851 0 0.000185064)
(0.00250598 0 0.000233241)
(0.00328488 0 0.000287398)
(0.00424885 0 0.000345984)
(0.00542647 0 0.000406533)
(0.00684705 0 0.000465586)
(0.00853933 0 0.000518699)
(0.0105294 0 0.000560535)
(0.0128377 0 0.000585083)
(0.0154737 0 0.000586005)
(0.0184295 0 0.000557169)
(0.0216685 0 0.000493429)
(0.0251109 0 0.000391853)
(0.028613 0 0.00025375)
(0.0319383 0 8.82687e-05)
(0.0347174 0 -8.17305e-05)
(0.0364564 0 -0.000214433)
(0.0371736 0 -0.00029444)
(0 0 0)
(1.0823e-05 0 1.5088e-06)
(2.35783e-05 0 3.25394e-06)
(4.12258e-05 0 5.60964e-06)
(6.71604e-05 0 8.9855e-06)
(0.000105558 0 1.38558e-05)
(0.000161764 0 2.07879e-05)
(0.000242624 0 3.04524e-05)
(0.000356779 0 4.36136e-05)
(0.00051493 0 6.10986e-05)
(0.000730065 0 8.37382e-05)
(0.00101763 0 0.000112276)
(0.00139565 0 0.000147245)
(0.00188476 0 0.000188809)
(0.00250818 0 0.000236581)
(0.00329156 0 0.000289434)
(0.0042627 0 0.000345315)
(0.00545102 0 0.000401105)
(0.00688667 0 0.00045254)
(0.00859909 0 0.000494241)
(0.0106147 0 0.000519872)
(0.0129537 0 0.000522451)
(0.0156242 0 0.00049485)
(0.0186156 0 0.000430518)
(0.0218866 0 0.000324505)
(0.0253506 0 0.000174963)
(0.0288543 0 -1.44629e-05)
(0.0321504 0 -0.000230554)
(0.0348627 0 -0.000443809)
(0.0365124 0 -0.000602874)
(0.037141 0 -0.000695462)
(0 0 0)
(1.08444e-05 0 1.58668e-06)
(2.3603e-05 0 3.41574e-06)
(4.12206e-05 0 5.87336e-06)
(6.70723e-05 0 9.37987e-06)
(0.000105306 0 1.44186e-05)
(0.000161235 0 2.15639e-05)
(0.00024166 0 3.14891e-05)
(0.000355179 0 4.49546e-05)
(0.00051245 0 6.2772e-05)
(0.000726427 0 8.57388e-05)
(0.00101253 0 0.000114539)
(0.00138879 0 0.000149606)
(0.00187586 0 0.000190955)
(0.002497 0 0.000237982)
(0.0032779 0 0.000289261)
(0.00424636 0 0.000342346)
(0.0054317 0 0.000393629)
(0.00686379 0 0.000438278)
(0.00857153 0 0.000470301)
(0.0105804 0 0.000482774)
(0.0129091 0 0.000468249)
(0.0155641 0 0.000419373)
(0.0185324 0 0.000329744)
(0.0217708 0 0.000195038)
(0.0251914 0 1.45799e-05)
(0.0286406 0 -0.00020625)
(0.0318694 0 -0.000451844)
(0.0344971 0 -0.000689204)
(0.0360509 0 -0.000861909)
(0.0365768 0 -0.000958391)
(0 0 0)
(1.08972e-05 0 1.66041e-06)
(2.36875e-05 0 3.56716e-06)
(4.12996e-05 0 6.11593e-06)
(6.70837e-05 0 9.73466e-06)
(0.000105149 0 1.49118e-05)
(0.000160751 0 2.22233e-05)
(0.000240616 0 3.23392e-05)
(0.00035324 0 4.60088e-05)
(0.000509154 0 6.40214e-05)
(0.000721152 0 8.7136e-05)
(0.00100447 0 0.000115976)
(0.00137688 0 0.000150886)
(0.00185876 0 0.000191754)
(0.00247298 0 0.000237808)
(0.00324473 0 0.000287401)
(0.00420112 0 0.000337821)
(0.00537057 0 0.000385156)
(0.00678174 0 0.000424262)
(0.00846194 0 0.000448871)
(0.0104348 0 0.000451893)
(0.0127166 0 0.000425909)
(0.0153118 0 0.000363888)
(0.018206 0 0.000260109)
(0.021357 0 0.000111295)
(0.0246822 0 -8.19587e-05)
(0.02804 0 -0.000313173)
(0.0311971 0 -0.000566531)
(0.0337747 0 -0.000810505)
(0.0352582 0 -0.000990085)
(0.0356985 0 -0.0010816)
(0 0 0)
(1.09894e-05 0 1.73241e-06)
(2.38478e-05 0 3.71315e-06)
(4.14882e-05 0 6.34542e-06)
(6.72315e-05 0 1.00622e-05)
(0.000105137 0 1.53533e-05)
(0.000160383 0 2.2792e-05)
(0.000239585 0 3.30391e-05)
(0.000351083 0 4.68268e-05)
(0.000505198 0 6.49161e-05)
(0.00071445 0 8.80237e-05)
(0.000993711 0 0.000116714)
(0.0013603 0 0.000151252)
(0.00183399 0 0.000191427)
(0.00243689 0 0.000236344)
(0.00319322 0 0.000284223)
(0.00412882 0 0.000332211)
(0.00527045 0 0.000376277)
(0.00664476 0 0.000411211)
(0.00827666 0 0.000430793)
(0.010187 0 0.000428151)
(0.0123891 0 0.000396339)
(0.0148846 0 0.000329127)
(0.0176581 0 0.000221953)
(0.0206695 0 7.30315e-05)
(0.023845 0 -0.000115398)
(0.0270649 0 -0.000335538)
(0.0301372 0 -0.000571444)
(0.0327515 0 -0.000795024)
(0.0343774 0 -0.000954959)
(0.0346518 0 -0.00109915)
(-2.50309e-17 0 0)
(0.00165816 0 0)
(0.00344842 0 0)
(0.00534536 0 0)
(0.0068852 0 0)
(0.00791477 0 0)
(0.00842811 0 0)
(0.00849007 0 0)
(0.00819362 0 0)
(0.00763659 0 0)
(0.00690976 0 0)
(0.00609115 0 0)
(0.0052439 0 0)
(0.0044161 0 0)
(0.00364189 0 0)
(0.0029432 0 0)
(0.00233177 0 0)
(0.00181132 0 0)
(0.00137956 0 0)
(0.00103004 0 0)
(0.000753738 0 0)
(0.000540371 0 0)
(0.000379378 0 0)
(0.000260682 0 0)
(0.00017516 0 0)
(0.00011491 0 0)
(7.33237e-05 0 0)
(4.50187e-05 0 0)
(2.56569e-05 0 0)
(1.16675e-05 0 0)
(0 0 0)
(0.0017489 0 -0.00170058)
(0.00281757 0 -0.0015098)
(0.00439653 0 -0.00132154)
(0.0060794 0 -0.00107866)
(0.00743626 0 -0.000842806)
(0.00831803 0 -0.000637457)
(0.00871538 0 -0.000467998)
(0.0086883 0 -0.000333229)
(0.00832489 0 -0.000229353)
(0.00771862 0 -0.000151616)
(0.00695652 0 -9.51555e-05)
(0.00611345 0 -5.54562e-05)
(0.00524993 0 -2.85713e-05)
(0.00441195 0 -1.11962e-05)
(0.00363197 0 -6.58554e-07)
(0.00293057 0 5.13637e-06)
(0.00231848 0 7.7817e-06)
(0.00179865 0 8.45118e-06)
(0.00136824 0 7.97938e-06)
(0.0010204 0 6.93537e-06)
(0.000745844 0 5.68707e-06)
(0.000534122 0 4.45553e-06)
(0.000374583 0 3.35886e-06)
(0.000257108 0 2.44672e-06)
(0.000172574 0 1.72608e-06)
(0.000113095 0 1.17986e-06)
(7.20945e-05 0 7.7944e-07)
(4.42301e-05 0 4.92458e-07)
(2.52033e-05 0 2.86889e-07)
(1.14772e-05 0 1.32305e-07)
(0 0 0)
(0.00502949 0 -0.00291618)
(0.00582514 0 -0.00269349)
(0.00697081 0 -0.00238483)
(0.00814723 0 -0.00197717)
(0.00903638 0 -0.00156353)
(0.00952529 0 -0.00119224)
(0.00960727 0 -0.000879975)
(0.00933393 0 -0.000628604)
(0.00878222 0 -0.000433284)
(0.0080347 0 -0.000286306)
(0.00716863 0 -0.000179162)
(0.00625062 0 -0.000103666)
(0.00533435 0 -5.25082e-05)
(0.00446027 0 -1.94877e-05)
(0.00365641 0 4.57352e-07)
(0.00293992 0 1.1321e-05)
(0.00231888 0 1.6155e-05)
(0.00179425 0 1.72145e-05)
(0.00136174 0 1.61061e-05)
(0.00101344 0 1.39257e-05)
(0.000739368 0 1.13811e-05)
(0.000528567 0 8.89624e-06)
(0.00037009 0 6.69564e-06)
(0.000253641 0 4.87148e-06)
(0.000170006 0 3.43357e-06)
(0.000111265 0 2.34543e-06)
(7.08463e-05 0 1.54871e-06)
(4.34288e-05 0 9.78281e-07)
(2.47465e-05 0 5.70045e-07)
(1.12888e-05 0 2.63196e-07)
(0 0 0)
(0.00946152 0 -0.0037011)
(0.00995061 0 -0.0034807)
(0.0106356 0 -0.00312178)
(0.011192 0 -0.00262327)
(0.0114599 0 -0.00209797)
(0.0114016 0 -0.00161357)
(0.0110305 0 -0.00119826)
(0.0103951 0 -0.000859261)
(0.00956102 0 -0.000593153)
(0.0085975 0 -0.000391412)
(0.007569 0 -0.000243586)
(0.00653083 0 -0.000139108)
(0.00552712 0 -6.82596e-05)
(0.00459047 0 -2.26309e-05)
(0.00374264 0 4.73946e-06)
(0.00299582 0 1.94012e-05)
(0.00235429 0 2.5626e-05)
(0.00181612 0 2.65872e-05)
(0.00137486 0 2.45524e-05)
(0.00102107 0 2.10703e-05)
(0.000743637 0 1.714e-05)
(0.000530856 0 1.33568e-05)
(0.000371255 0 1.00321e-05)
(0.000254197 0 7.28886e-06)
(0.00017025 0 5.13274e-06)
(0.000111362 0 3.5042e-06)
(7.0882e-05 0 2.31331e-06)
(4.34449e-05 0 1.46137e-06)
(2.47603e-05 0 8.51981e-07)
(1.12997e-05 0 3.93866e-07)
(0 0 0)
(0.0144789 0 -0.00411644)
(0.014688 0 -0.00390419)
(0.0148957 0 -0.00353031)
(0.0147944 0 -0.00299692)
(0.014378 0 -0.0024198)
(0.0136964 0 -0.00187586)
(0.0127952 0 -0.00140123)
(0.0117269 0 -0.00100831)
(0.0105493 0 -0.000696435)
(0.00931916 0 -0.00045799)
(0.00808763 0 -0.000282231)
(0.00689756 0 -0.000157599)
(0.00578216 0 -7.30667e-05)
(0.00476479 0 -1.88479e-05)
(0.00385965 0 1.33079e-05)
(0.00307288 0 3.00664e-05)
(0.00240403 0 3.66095e-05)
(0.00184755 0 3.68132e-05)
(0.00139428 0 3.34588e-05)
(0.00103278 0 2.8449e-05)
(0.000750531 0 2.30088e-05)
(0.00053481 0 1.7863e-05)
(0.000373465 0 1.33839e-05)
(0.000255402 0 9.70881e-06)
(0.000170893 0 6.83044e-06)