/*--------------------------------*- C++ -*----------------------------------*\
| =========                 |                                                 |
| \\      /  F ield         | OpenFOAM: The Open Source CFD Toolbox           |
|  \\    /   O peration     | Version:  2012                                  |
|   \\  /    A nd           | Website:  www.openfoam.com                      |
|    \\/     M anipulation  |                                                 |
\*---------------------------------------------------------------------------*/
FoamFile
{
    version     2.0;
    format      ascii;
    class       volVectorField;
    location    "0.3";
    object      U;
}
// * * * * * * * * * * * * * * * * * * * * * * * * * * * * * * * * * * * * * //

dimensions      [0 1 -1 0 0 0 0];


internalField   nonuniform List<vector> 
2790
(
(9.9451 -1.22993e-22 0.0198023)
(9.88073 1.25154e-22 0.0280715)
(9.78674 -5.12338e-22 0.0335274)
(9.66984 2.60125e-22 0.0388718)
(9.53593 -1.08329e-21 0.0440781)
(9.3867 3.34212e-21 0.0489913)
(9.22252 -4.59966e-21 0.0536726)
(9.04398 1.17482e-21 0.0582731)
(8.85169 0 0.0629695)
(8.64598 -2.57946e-21 0.067951)
(8.42665 2.69313e-21 0.0734119)
(8.19301 0 0.0795415)
(7.94395 5.91049e-21 0.0865139)
(7.67804 6.37267e-21 0.0944842)
(7.39359 -2.62128e-20 0.103588)
(7.08881 2.74968e-20 0.11394)
(6.76187 1.46414e-20 0.125637)
(6.41101 0 0.138751)
(6.03472 8.39398e-21 0.153334)
(5.63186 -7.99642e-20 0.169401)
(5.20179 3.74627e-20 0.186933)
(4.74456 -1.65057e-19 0.205863)
(4.261 2.6187e-19 0.226081)
(3.7528 9.5174e-20 0.247448)
(3.22253 0 0.269823)
(2.67336 2.25397e-19 0.293108)
(2.10875 -9.91917e-19 0.317312)
(1.53188 5.34421e-19 0.342595)
(0.932914 -2.67345e-18 0.370353)
(0.407312 7.17986e-18 0.394888)
(9.99937 0 0.0387094)
(9.98508 -2.48148e-22 0.0586748)
(9.94294 5.05215e-22 0.0739857)
(9.87441 7.80511e-22 0.090064)
(9.78308 -1.05532e-21 0.106798)
(9.67011 0 0.12357)
(9.53582 -1.91352e-23 0.140221)
(9.38098 8.17373e-21 0.156853)
(9.20665 -4.79255e-21 0.173702)
(9.01376 -2.50493e-21 0.191112)
(8.8028 -7.84971e-21 0.209508)
(8.57381 -1.36977e-22 0.22935)
(8.32631 -5.9861e-21 0.251092)
(8.05942 1.80595e-20 0.275148)
(7.77189 -1.24886e-20 0.301876)
(7.46222 -1.3327e-20 0.331558)
(7.12876 -2.8334e-20 0.36439)
(6.76984 -1.54813e-20 0.400468)
(6.38393 -3.28806e-20 0.439764)
(5.96974 1.6754e-19 0.482111)
(5.52646 -2.91576e-19 0.527181)
(5.05386 6.16968e-19 0.574469)
(4.55246 -4.10691e-19 0.623306)
(4.02364 -8.94281e-20 0.672894)
(3.46964 -1.17507e-18 0.722401)
(2.89337 1.45523e-18 0.771105)
(2.29796 -4.56264e-19 0.818639)
(1.68652 -3.51226e-18 0.86525)
(1.04833 8.45702e-18 0.913704)
(0.470381 -4.18984e-18 0.950211)
(9.99644 -4.88069e-22 0.040099)
(9.97907 2.47857e-22 0.0699837)
(9.93866 -5.04031e-22 0.0969238)
(9.8743 1.28352e-21 0.125504)
(9.78797 -7.89934e-22 0.155656)
(9.68057 5.44707e-22 0.18642)
(9.55234 -6.13686e-21 0.217271)
(9.40387 1.14379e-21 0.248116)
(9.23606 -4.76587e-21 0.279169)
(9.04974 4.96225e-21 0.310894)
(8.84538 5.08291e-21 0.343943)
(8.62302 -2.27837e-20 0.379078)
(8.38226 1.39031e-21 0.417083)
(8.12225 3.52729e-20 0.458709)
(7.84178 -2.46343e-20 0.504624)
(7.53936 2.67035e-20 0.555387)
(7.21329 -5.40523e-20 0.611415)
(6.86178 5.75949e-20 0.672958)
(6.4831 0 0.740062)
(6.07568 -1.94349e-19 0.812531)
(5.63831 0 0.889883)
(5.17026 0 0.971319)
(4.6715 0 1.0557)
(4.14281 -3.36965e-19 1.14159)
(3.58586 -2.29979e-21 1.22733)
(3.00318 3.92044e-19 1.31127)
(2.39789 3.861e-18 1.39207)
(1.77437 -7.41367e-18 1.46908)
(1.12413 5.03003e-18 1.54474)
(0.520236 8.845e-18 1.6007)
(9.99486 5.48825e-22 0.0453025)
(9.97527 -6.16471e-23 0.0862563)
(9.93463 1.00139e-21 0.125539)
(9.8715 -2.74005e-24 0.166313)
(9.78697 5.21495e-22 0.208846)
(9.68179 1.07414e-21 0.252274)
(9.55636 6.0743e-21 0.295927)
(9.41126 0 0.339628)
(9.24734 5.02114e-21 0.383623)
(9.06538 -1.00595e-20 0.428518)
(8.86583 1.0135e-20 0.475189)
(8.6487 1.05999e-20 0.524676)
(8.41359 1.08421e-20 0.578069)
(8.15967 1.16212e-20 0.636433)
(7.88573 2.47713e-20 0.700737)
(7.59026 3.67266e-22 0.771814)
(7.27151 0 0.850323)
(6.9276 -2.25402e-19 0.936711)
(6.55659 1.16702e-19 1.03116)
(6.15665 2.49659e-19 1.13353)
(5.72617 -1.31683e-19 1.24328)
(5.26394 9.98374e-19 1.35943)
(4.76931 -8.86755e-19 1.48048)
(4.24245 1.29628e-18 1.60438)
(3.68448 -2.04426e-18 1.72863)
(3.09767 -3.70357e-19 1.85045)
(2.48544 0 1.96708)
(1.85404 0 2.07614)
(1.19932 -9.33745e-19 2.17799)
(0.573246 0 2.24955)
(9.99413 -4.84367e-22 0.0519442)
(9.97333 0 0.102367)
(9.93257 -9.99132e-22 0.152519)
(9.8706 -1.01778e-21 0.204598)
(9.78799 -2.61019e-22 0.25896)
(9.68528 2.64619e-22 0.314744)
(9.56289 -4.38204e-21 0.371072)
(9.42143 2.83942e-22 0.427592)
(9.26172 -2.15318e-22 0.484517)
(9.08451 1.08015e-20 0.542551)
(8.89022 -1.12608e-20 0.60277)
(8.67889 5.2497e-21 0.666473)
(8.45011 -4.85986e-20 0.735054)
(8.20304 0 0.809887)
(7.93649 7.70109e-22 0.892254)
(7.64889 -4.8716e-20 0.983282)
(7.33845 5.13625e-20 1.0839)
(7.00312 5.44142e-20 1.1948)
(6.64078 0 1.31636)
(6.24925 -1.20546e-19 1.44857)
(5.82646 -3.85283e-19 1.59092)
(5.37063 7.96904e-19 1.74232)
(4.88041 -2.85514e-19 1.90095)
(4.35522 3.95192e-21 2.06414)
(3.79551 4.29819e-21 2.2284)
(3.20324 2.77801e-18 2.38941)
(2.58217 -2.94111e-18 2.54231)
(1.94036 0 2.68197)
(1.27968 4.35023e-19 2.80489)
(0.629965 2.33545e-19 2.88122)
(9.99382 4.23626e-22 0.0592207)
(9.97255 6.1054e-23 0.118506)
(9.93209 -1.24372e-22 0.179002)
(9.87157 -1.63466e-21 0.24221)
(9.79125 -2.56373e-22 0.308242)
(9.69149 4.20528e-21 0.376108)
(9.57268 4.31466e-21 0.444736)
(9.43547 0 0.513633)
(9.28066 9.15186e-21 0.583003)
(9.10899 9.4558e-21 0.653664)
(8.9209 0 0.726898)
(8.71641 0 0.804274)
(8.49513 2.12533e-20 0.887484)
(8.25624 -4.38422e-20 0.978222)
(7.99853 4.53247e-20 1.07809)
(7.72043 1.44223e-19 1.18853)
(7.42004 -1.49122e-19 1.31078)
(7.09516 2.63659e-19 1.44582)
(6.74342 -3.25237e-19 1.5943)
(6.36224 4.65099e-19 1.75643)
(5.94902 1.13139e-20 1.93186)
(5.50123 -1.5327e-18 2.11949)
(5.01663 1.06094e-18 2.31726)
(4.4936 2.85837e-19 2.52193)
(3.93159 -2.12635e-18 2.72884)
(3.3318 5.12867e-18 2.93175)
(2.69791 2.79547e-18 3.12295)
(2.03904 -5.87114e-18 3.29349)
(1.36347 6.3971e-18 3.4345)
(0.686562 -7.27555e-18 3.5047)
(9.99375 -3.0071e-23 0.0667349)
(9.97252 9.12314e-23 0.134555)
(9.93278 -1.04424e-21 0.204872)
(9.874 2.00729e-21 0.278763)
(9.79635 2.03586e-21 0.356023)
(9.7 -8.60608e-21 0.435491)
(9.58535 -4.02166e-21 0.515927)
(9.45304 8.75561e-21 0.596715)
(9.30391 -6.15882e-23 0.678044)
(9.13867 -9.36463e-21 0.760836)
(8.95776 4.86812e-21 0.846568)
(8.76124 -4.94739e-21 0.937063)
(8.54875 0 1.03431)
(8.31949 4.52798e-22 1.14032)
(8.07228 -8.92402e-20 1.25702)
(7.8055 9.39039e-20 1.38621)
(7.51721 -9.56024e-20 1.52946)
(7.20507 -5.06999e-20 1.68812)
(6.86642 1.05826e-19 1.86319)
(6.49827 4.43967e-19 2.05524)
(6.09738 1.03122e-20 2.26421)
(5.66035 -1.44971e-18 2.48919)
(5.18378 9.98387e-19 2.72809)
(4.66462 -1.0717e-18 2.9772)
(4.10072 1.24847e-18 3.23075)
(3.49174 0 3.48035)
(2.84031 0 3.71481)
(2.15541 -1.67418e-19 3.92027)
(1.45039 0 4.08142)
(0.740341 1.50758e-19 4.1397)
(9.99382 2.99044e-23 0.0742534)
(9.97298 -9.93513e-22 0.150319)
(9.93434 8.57951e-22 0.229956)
(9.87763 1.23767e-22 0.314032)
(9.80298 -2.02743e-21 0.402047)
(9.71052 3.87972e-21 0.492633)
(9.60058 2.62458e-22 0.584372)
(9.47384 -8.69223e-21 0.676525)
(9.33113 -8.37658e-21 0.769264)
(9.17317 1.76908e-20 0.863605)
(9.00044 2.36007e-20 0.961207)
(8.81302 -1.47088e-20 1.06414)
(8.61059 -1.91307e-22 1.17469)
(8.39242 -1.02676e-20 1.29518)
(8.15736 6.50866e-20 1.42789)
(7.90383 4.46016e-20 1.57495)
(7.62984 1.40509e-19 1.73835)
(7.33294 -4.78217e-20 1.91985)
(7.01024 -2.03295e-19 2.12093)
(6.65835 2.06793e-19 2.34265)
(6.27336 4.39509e-19 2.58545)
(5.85087 -6.74574e-19 2.84889)
(5.38608 0 3.13114)
(4.87405 0 3.42842)
(4.31025 -2.58768e-19 3.73409)
(3.69168 0 4.03776)
(3.01842 0 4.32437)
(2.29766 -2.40605e-18 4.57406)
(1.54466 2.67072e-18 4.7638)
(0.791424 -5.78355e-20 4.81116)
(9.99399 -9.47507e-22 0.0816274)
(9.9738 9.01961e-22 0.165626)
(9.93659 6.05482e-23 0.254105)
(9.88227 0 0.34785)
(9.811 -1.25696e-22 0.446109)
(9.72286 1.26907e-22 0.54728)
(9.61816 0 0.649755)
(9.4976 8.50116e-21 0.752677)
(9.36202 2.75812e-22 0.856198)
(9.21216 -1.83713e-20 0.961418)
(9.04853 -1.62958e-20 1.07017)
(8.87126 2.45099e-21 1.18476)
(8.68012 5.06278e-21 1.30775)
(8.47445 7.13038e-20 1.44178)
(8.25319 0 1.58945)
(8.01482 -8.68631e-20 1.7533)
(7.75738 4.54409e-20 1.93573)
(7.47839 -1.38793e-19 2.13899)
(7.17479 -2.41402e-19 2.36513)
(6.84285 1.96608e-19 2.61588)
(6.47806 4.14775e-19 2.89242)
(6.07499 -3.13567e-19 3.19513)
(5.62728 8.88961e-19 3.52294)
(5.12767 -1.77306e-18 3.8726)
(4.56841 1.03668e-18 4.23736)
(3.94232 -1.52613e-20 4.60542)
(3.2448 2.11171e-18 4.95804)
(2.47885 -2.18935e-18 5.26825)
(1.65604 -2.43035e-18 5.50317)
(0.843058 2.63206e-18 5.54818)
(9.99423 1.88793e-21 0.0887548)
(9.9749 0 0.180337)
(9.93939 6.03371e-23 0.277177)
(9.88776 -6.07783e-23 0.380052)
(9.8202 -3.94602e-21 0.487993)
(9.73679 0 0.59916)
(9.63784 -2.58528e-22 0.711753)
(9.52403 1.86943e-22 0.824793)
(9.39624 8.56923e-21 0.938405)
(9.25523 -1.7576e-20 1.05376)
(9.10155 1.57596e-20 1.17285)
(8.93543 1.61576e-20 1.29821)
(8.75671 4.76481e-21 1.43265)
(8.56488 -3.98479e-20 1.5791)
(8.35899 4.03846e-20 1.74052)
(8.13766 4.30987e-20 1.91982)
(7.89903 -4.28063e-20 2.11984)
(7.64068 0 2.34339)
(7.35952 9.1421e-20 2.59316)
(7.05163 4.63853e-20 2.8717)
(6.71204 0 3.18125)
(6.33442 0 3.52337)
(5.91087 4.11945e-19 3.89845)
(5.43155 -4.77933e-19 4.30467)
(4.88474 -8.46321e-19 4.73647)
(4.25745 8.54924e-19 5.18211)
(3.53734 0 5.62045)
(2.71937 1.03333e-18 6.01698)
(1.80217 -2.15453e-18 6.32577)
(0.903118 1.15412e-18 6.38937)
(9.99452 -9.40454e-22 0.0955619)
(9.9762 0 0.194336)
(9.94262 0 0.299046)
(9.89395 0 0.410486)
(9.83041 4.05429e-21 0.527505)
(9.75209 -1.23876e-22 0.648036)
(9.65932 -8.07149e-21 0.770079)
(9.55279 -8.31456e-21 0.892531)
(9.43338 -8.50497e-21 1.01548)
(9.30191 1.64179e-22 1.14017)
(9.15897 -3.54903e-20 1.26871)
(9.00489 -3.87417e-20 1.40384)
(8.83966 2.32128e-21 1.54861)
(8.66289 3.80822e-20 1.70623)
(8.47383 -3.97731e-20 1.87998)
(8.2713 4.08445e-20 2.07311)
(8.05365 0 2.28895)
(7.81865 0 2.53083)
(7.56336 -8.88443e-20 2.8022)
(7.28388 1.10887e-19 3.10656)
(6.97507 -9.01909e-20 3.44739)
(6.63004 0 3.82796)
(6.23963 0 4.25078)
(5.7916 5.30891e-20 4.71675)
(5.26991 0 5.22338)
(4.6543 1.49018e-19 5.76174)
(3.92102 5.16736e-19 6.31152)
(3.05089 -4.34119e-19 6.83278)
(2.01482 -1.1175e-19 7.2638)
(0.988841 -3.90911e-19 7.38985)
(9.99485 1.8183e-24 0.101992)
(9.97767 -1.82906e-24 0.207529)
(9.94623 1.85396e-21 0.319592)
(9.90075 1.99336e-21 0.43901)
(9.84152 -6.0299e-23 0.564473)
(9.76862 0 0.693696)
(9.68242 1.5981e-20 0.824478)
(9.58361 8.09933e-21 0.95559)
(9.4731 5.22574e-22 1.08708)
(9.35176 3.4507e-20 1.22022)
(9.22024 1.64101e-20 1.35726)
(9.079 8.23026e-22 1.50108)
(8.92816 3.53972e-20 1.65495)
(8.76753 -7.3199e-20 1.82233)
(8.59661 -1.1832e-21 2.00676)
(8.41448 3.854e-20 2.21187)
(8.21981 0 2.44137)
(8.01072 -2.04261e-20 2.69916)
(7.78462 -2.13814e-20 2.98941)
(7.53796 2.13218e-20 3.31665)
(7.26584 -1.30431e-21 3.68579)
(6.96138 2.10507e-20 4.10211)
(6.61488 0 4.57102)
(6.2125 4.26667e-20 5.09747)
(5.7345 -2.63601e-19 5.68447)
(5.15298 6.32373e-22 6.33013)
(4.42942 -9.31858e-20 7.02147)
(3.52191 1.7387e-19 7.72114)
(2.34984 -1.32818e-20 8.35515)
(1.1357 2.05442e-20 8.6319)
(9.99521 7.21452e-24 0.108002)
(9.97926 -1.86499e-21 0.219835)
(9.95012 -1.87289e-21 0.338711)
(9.90805 -1.86917e-21 0.465497)
(9.85335 -2.97977e-23 0.598743)
(9.78617 2.43348e-22 0.735951)
(9.70686 -8.15743e-21 0.874727)
(9.61616 -8.55489e-21 1.01371)
(9.515 1.67236e-20 1.15289)
(9.40428 -2.31132e-21 1.29356)
(9.28476 -1.4749e-20 1.43806)
(9.157 1.52954e-20 1.58941)
(9.02131 -3.3513e-20 1.75106)
(8.87774 3.64763e-20 1.92665)
(8.72605 0 2.11997)
(8.56568 -4.73922e-20 2.33492)
(8.39572 5.67282e-20 2.57558)
(8.21479 -9.62788e-21 2.84634)
(8.02092 9.83985e-21 3.15204)
(7.81124 -9.84795e-21 3.49817)
(7.58162 3.09387e-20 3.89108)
(7.32601 -3.96395e-22 4.33824)
(7.03536 -1.0845e-21 4.84839)
(6.69596 0 5.43164)
(6.28657 7.73201e-20 6.09904)
(5.77395 -1.4295e-19 6.86093)
(5.10465 0 7.72231)
(4.20555 -1.59175e-19 8.66782)
(2.90633 3.19519e-19 9.6382)
(1.41776 -7.82069e-19 10.2621)
(9.99559 0 0.113557)
(9.98096 3.68173e-21 0.231194)
(9.95424 0 0.356324)
(9.91573 -3.66325e-24 0.489848)
(9.86577 3.68004e-24 0.630191)
(9.80452 2.39945e-22 0.774656)
(9.73238 -2.41398e-22 0.920655)
(9.65009 -8.81568e-21 1.06668)
(9.55862 7.91998e-22 1.21267)
(9.45893 -1.84581e-20 1.35992)
(9.35185 1.87877e-20 1.51082)
(9.23809 4.24917e-21 1.66848)
(9.11816 -4.28133e-21 1.83649)
(8.99234 -8.80242e-21 2.01865)
(8.86072 8.85464e-21 2.2189)
(8.72316 0 2.44136)
(8.57927 -1.00801e-21 2.69038)
(8.42832 -3.70347e-20 2.9707)
(8.26915 3.70377e-20 3.28769)
(8.09995 -7.68192e-20 3.64763)
(7.91797 6.47566e-20 4.05813)
(7.7189 1.46814e-19 4.5286)
(7.49596 -1.82926e-19 5.07102)
(7.23817 -6.82011e-20 5.70092)
(6.92721 0 6.43877)
(6.53154 1.37228e-19 7.3116)
(5.99208 1.11716e-19 8.35475)
(5.20948 -2.14516e-19 9.60875)
(3.87738 2.77501e-19 11.1167)
(2.01155 6.21732e-20 12.6045)
(9.99599 0 0.118631)
(9.98273 -1.83147e-21 0.241555)
(9.95855 -5.74643e-23 0.372359)
(9.92374 1.15606e-22 0.511971)
(9.87866 -3.77085e-21 0.658696)
(9.82352 -1.18263e-22 0.80965)
(9.75875 5.97909e-22 0.962057)
(9.68511 1.49963e-20 1.11427)
(9.60359 -3.33925e-20 1.26614)
(9.5152 1.78279e-20 1.41896)
(9.42088 0 1.57513)
(9.32148 8.2757e-21 1.73784)
(9.21769 -8.33021e-21 1.91074)
(9.11009 0 2.09772)
(8.9991 -1.72536e-20 2.30284)
(8.88505 1.73133e-20 2.53032)
(8.76811 -3.55331e-20 2.78465)
(8.64832 5.31633e-20 3.07078)
(8.52553 -7.03411e-20 3.39436)
(8.39927 2.23572e-21 3.76217)
(8.26865 1.38034e-19 4.18255)
(8.13202 -1.36731e-19 4.66626)
(7.98646 0 5.22758)
(7.82683 6.57629e-20 5.88622)
(7.64383 0 6.67056)
(7.42024 0 7.62355)
(7.11869 2.40136e-19 8.81482)
(6.67154 -5.86649e-19 10.3682)
(5.69253 1.86644e-19 12.5856)
(3.40699 3.86172e-20 16.5066)
(-0.173542 2.45294e-18 0.164871)
(-0.559147 0 0.178792)
(-0.968048 -1.05321e-18 0.178848)
(-1.37222 1.97769e-18 0.167509)
(-1.74627 -9.37529e-19 0.143703)
(-2.06406 -2.19407e-19 0.109857)
(-2.29077 2.0642e-19 0.0657273)
(-2.40712 0 0.0142235)
(-2.40255 8.54195e-20 -0.0432849)
(-2.25037 -8.5171e-20 -0.103861)
(-1.96487 3.73318e-20 -0.163398)
(-1.51948 3.3762e-20 -0.215693)
(-0.954023 0 -0.256713)
(-0.277706 0 -0.282945)
(0.448917 -4.00943e-21 -0.293485)
(1.21685 7.47378e-22 -0.291739)
(1.99281 2.42424e-21 -0.280525)
(2.75321 -1.62756e-21 -0.262547)
(3.48006 1.27364e-21 -0.240255)
(4.16115 0 -0.215843)
(4.78895 0 -0.190423)
(5.35832 -1.02961e-22 -0.165432)
(5.86594 0 -0.142039)
(6.31263 2.24919e-23 -0.120683)
(6.70269 0 -0.101464)
(7.04104 0 -0.084463)
(7.33196 7.49161e-25 -0.0696767)
(7.57953 1.51202e-24 -0.0569639)
(7.78805 0 -0.0461525)
(7.99777 0 -0.037866)
(-0.172903 -4.71684e-18 0.523494)
(-0.564162 0 0.55788)
(-0.99327 0 0.557285)
(-1.41648 -9.37831e-19 0.525296)
(-1.80677 3.16083e-18 0.459787)
(-2.13739 -1.52707e-18 0.362261)
(-2.37379 -1.00196e-18 0.235211)
(-2.49394 7.89635e-19 0.0816797)
(-2.48605 -1.77049e-19 -0.0867484)
(-2.32201 1.60621e-19 -0.260559)
(-2.01322 -3.57954e-20 -0.429354)
(-1.53775 -3.20513e-20 -0.578223)
(-0.94109 2.79598e-20 -0.69154)
(-0.234862 0 -0.766333)
(0.51946 0 -0.800029)
(1.31234 0 -0.800481)
(2.11052 2.82948e-22 -0.77513)
(2.891 -6.21368e-22 -0.730989)
(3.63629 8.30057e-22 -0.674393)
(4.33484 -3.6027e-22 -0.610778)
(4.97971 3.44411e-22 -0.54406)
(5.56565 -1.01366e-22 -0.478041)
(6.08969 6.76522e-23 -0.415525)
(6.55287 5.8873e-23 -0.35766)
(6.95927 -3.5255e-23 -0.304854)
(7.31349 0 -0.257427)
(7.61962 -7.40895e-24 -0.215465)
(7.8816 9.14707e-25 -0.178711)
(8.10326 9.38125e-26 -0.146799)
(8.32491 1.14313e-24 -0.120235)
(-0.171151 -1.80723e-17 0.916914)
(-0.579363 8.37706e-18 0.965164)
(-1.05033 -9.87287e-19 0.95835)
(-1.50974 -3.6597e-18 0.899109)
(-1.93377 4.87269e-18 0.786666)
(-2.29305 -8.51983e-19 0.617942)
(-2.55432 0 0.399323)
(-2.69005 3.54737e-19 0.134047)
(-2.68194 -2.28946e-19 -0.156311)
(-2.50474 -9.38892e-19 -0.455721)
(-2.16115 3.10086e-20 -0.747464)
(-1.64678 1.46887e-19 -1.0007)
(-1.00738 1.84939e-19 -1.18988)
(-0.259201 -9.18236e-20 -1.31206)
(0.526147 -7.95212e-21 -1.36438)
(1.34331 -1.05333e-20 -1.36146)
(2.15823 1.01166e-20 -1.31583)
(2.94903 1.3862e-21 -1.23923)
(3.69951 -1.3162e-21 -1.14224)
(4.39921 -4.04009e-22 -1.03373)
(5.04208 -2.83851e-22 -0.920803)
(5.62385 1.94614e-22 -0.809509)
(6.14264 -6.59399e-23 -0.703971)
(6.60034 -1.36326e-22 -0.60613)
(7.0013 5.10165e-24 -0.516882)
(7.35026 -4.84573e-25 -0.436773)
(7.6515 3.88565e-24 -0.365881)
(7.90915 0 -0.303731)
(8.12693 -6.37329e-25 -0.249557)
(8.34528 -1.28375e-26 -0.202922)
(-0.168031 -8.6609e-18 1.36651)
(-0.609619 8.52302e-18 1.42412)
(-1.14443 4.68586e-18 1.40816)
(-1.66142 -4.46344e-18 1.32024)
(-2.13859 2.53567e-18 1.15307)
(-2.54388 -2.51687e-18 0.905468)
(-2.84063 0 0.583081)
(-2.99478 3.76771e-19 0.195364)
(-2.97854 3.35352e-19 -0.235284)
(-2.77033 4.23972e-19 -0.676663)
(-2.36569 -5.61453e-19 -1.10415)
(-1.78953 0 -1.46284)
(-1.08478 0 -1.72623)
(-0.27743 0 -1.88762)
(0.550162 7.47809e-21 -1.94841)
(1.39924 1.00292e-20 -1.93366)
(2.23534 -9.67082e-21 -1.86094)
(3.03843 0 -1.74667)
(3.79419 1.42518e-22 -1.6056)
(4.49377 9.65877e-22 -1.44975)
(5.1325 3.63673e-22 -1.28917)
(5.70747 2.29971e-22 -1.13194)
(6.21819 -1.32288e-22 -0.983283)
(6.66743 7.74177e-23 -0.845859)
(7.05999 8.85553e-24 -0.72096)
(7.40085 0 -0.609184)
(7.6946 0 -0.510414)
(7.9456 0 -0.423848)
(8.1576 1.61743e-25 -0.34828)
(8.37053 1.02106e-24 -0.282632)
(-0.167028 0 1.89847)
(-0.665973 7.19603e-18 1.95609)
(-1.28734 -7.2091e-18 1.92589)
(-1.88334 0 1.80279)
(-2.4344 -8.43829e-19 1.57386)
(-2.89999 0 1.23359)
(-3.23503 -8.1036e-19 0.78888)
(-3.39921 0 0.255237)
(-3.35213 0 -0.343404)
(-3.0791 -3.00433e-19 -0.9501)
(-2.58197 -2.41904e-19 -1.524)
(-1.91838 5.6512e-19 -1.98697)
(-1.12849 -1.59798e-19 -2.31769)
(-0.254346 0 -2.50563)
(0.620204 0 -2.5627)
(1.50222 -1.91384e-20 -2.52643)
(2.35841 1.05274e-20 -2.41896)
(3.17125 6.68172e-21 -2.26116)
(3.92896 9.7229e-24 -2.07167)
(4.6247 0 -1.86543)
(5.25538 0 -1.65517)
(5.81971 0 -1.45077)
(6.31874 -1.33533e-22 -1.25845)
(6.7562 8.85786e-23 -1.08136)
(7.1373 0 -0.921045)
(7.46735 0 -0.778012)
(7.75126 9.7115e-24 -0.651845)
(7.99359 4.44762e-26 -0.541357)
(8.19816 6.74259e-25 -0.444897)
(8.40401 -2.1083e-24 -0.360847)
(-0.177885 0 2.53676)
(-0.758452 4.65492e-19 2.58801)
(-1.48864 0 2.53541)
(-2.18475 0 2.36575)
(-2.82125 -3.64466e-20 2.0602)
(-3.34997 -3.11308e-18 1.60745)
(-3.71168 3.97003e-18 1.00865)
(-3.85455 -1.862e-18 0.287888)
(-3.73498 1.36971e-18 -0.511851)
(-3.35076 2.82523e-19 -1.30925)
(-2.73232 -1.06955e-19 -2.03019)
(-1.95976 1.27186e-19 -2.58885)
(-1.07559 1.60254e-21 -2.97097)
(-0.142052 0 -3.16634)
(0.775237 0 -3.20538)
(1.68252 -1.82876e-20 -3.13624)
(2.55037 2.45276e-20 -2.98533)
(3.36438 -7.84018e-21 -2.77757)
(4.1157 -1.01217e-21 -2.53498)
(4.79994 0 -2.27545)
(5.41567 -2.26801e-22 -2.01393)
(5.96338 6.26132e-24 -1.76165)
(6.44564 1.54633e-22 -1.52546)
(6.86701 -1.4046e-22 -1.30896)
(7.23304 0 -1.11376)
(7.54928 0 -0.940174)
(7.82086 -9.5853e-24 -0.787414)
(8.05252 0 -0.653844)
(8.24804 -2.61446e-25 -0.537337)
(8.44515 1.85014e-24 -0.435744)
(-0.207994 -3.64411e-20 3.29916)
(-0.894545 -4.50242e-20 3.33814)
(-1.74734 3.68181e-18 3.2531)
(-2.54924 3.98633e-18 3.02224)
(-3.26722 7.61096e-19 2.61337)
(-3.83931 0 2.00948)
(-4.1923 4.1466e-19 1.2125)
(-4.25996 -1.1126e-18 0.252392)
(-4.01156 1.37476e-18 -0.785336)
(-3.4751 -1.48805e-19 -1.78455)
(-2.71841 -1.2155e-19 -2.63928)
(-1.83091 0 -3.27436)
(-0.859507 -9.05987e-20 -3.68146)
(0.110365 1.78665e-20 -3.86064)
(1.05618 0 -3.86782)
(1.97227 1.75669e-20 -3.75469)
(2.83597 -1.66797e-20 -3.55207)
(3.63639 -1.02765e-21 -3.28861)
(4.36793 5.72493e-22 -2.98921)
(5.02883 3.12064e-21 -2.6745)
(5.61955 -2.22546e-22 -2.3611)
(6.14232 5.8251e-22 -2.061)
(6.601 0 -1.78153)
(7.00074 0 -1.52651)
(7.34727 0 -1.29754)
(7.64622 -3.69578e-24 -1.0946)
(7.90279 3.65138e-24 -0.916443)
(8.12168 5.05309e-24 -0.760929)
(8.30654 -5.25794e-26 -0.625436)
(8.49341 -1.78464e-24 -0.507275)
(-0.258705 0 4.19691)
(-1.0595 -4.06511e-19 4.21306)
(-2.02827 -3.86381e-19 4.07889)
(-2.91691 -4.25631e-18 3.76075)
(-3.68686 3.07762e-18 3.2113)
(-4.25961 -1.56834e-18 2.40399)
(-4.54642 -7.8603e-19 1.34889)
(-4.47219 3.13929e-18 0.0983215)
(-4.04611 -1.0534e-18 -1.20241)
(-3.33764 1.41424e-19 -2.39168)
(-2.44494 -2.35106e-19 -3.35294)
(-1.45951 4.35905e-19 -4.03272)
(-0.429894 -2.7643e-19 -4.43144)
(0.546543 4.09395e-20 -4.5717)
(1.49689 -2.25308e-20 -4.5349)
(2.39836 2.13077e-20 -4.368)
(3.23603 -6.1904e-21 -4.10669)
(4.00307 3.38542e-21 -3.78314)
(4.69737 2.56388e-22 -3.42488)
(5.31979 -1.1559e-21 -3.05466)
(5.87285 0 -2.6901)
(6.36034 1.56431e-22 -2.34352)
(6.78708 -1.54702e-22 -2.02244)
(7.15855 0 -1.73078)
(7.4804 0 -1.46992)
(7.75812 0 -1.2394)
(7.99671 2.39998e-23 -1.03746)
(8.20062 7.74e-25 -0.861467)
(8.37319 0 -0.708285)
(8.54828 0 -0.5747)
(-0.319258 3.422e-18 5.21865)
(-1.20691 0 5.1899)
(-2.25047 -3.99951e-19 4.98374)
(-3.17879 -1.57718e-18 4.54421)
(-3.94876 1.56027e-18 3.80713)
(-4.46507 -1.65226e-18 2.73917)
(-4.62102 1.36241e-20 1.36382)
(-4.33899 1.26464e-18 -0.219565)
(-3.71447 -8.29741e-19 -1.78138)
(-2.84127 4.83597e-19 -3.12654)
(-1.84031 1.34676e-19 -4.15386)
(-0.78993 0 -4.83781)
(0.228455 -3.56172e-20 -5.18786)
(1.19515 8.70483e-20 -5.27929)
(2.1183 2.14753e-20 -5.18735)
(2.97702 -2.5126e-20 -4.95851)
(3.76279 0 -4.63341)
(4.47339 2.1584e-21 -4.2475)
(5.11037 -2.13409e-21 -3.83055)
(5.67718 -2.47652e-23 -3.40651)
(6.17836 0 -2.9933)
(6.61905 1.56156e-22 -2.60318)
(7.00462 -9.95264e-23 -2.2436)
(7.34056 -5.51862e-23 -1.91831)
(7.63219 -1.30428e-23 -1.62832)
(7.88453 1.70919e-23 -1.37268)
(8.10206 -2.89807e-23 -1.14912)
(8.28873 -5.02673e-24 -0.954497)
(8.44738 2.01341e-24 -0.785212)
(8.60927 4.47755e-26 -0.637556)
(-0.362416 1.65254e-18 6.30443)
(-1.26363 -1.58927e-18 6.20932)
(-2.30184 3.26312e-19 5.90627)
(-3.1988 1.5158e-18 5.31407)
(-3.90636 0 4.34534)
(-4.30596 -1.34159e-18 2.96194)
(-4.2594 2.61708e-18 1.21209)
(-3.72844 4.29072e-19 -0.726412)
(-2.92395 -1.82106e-19 -2.51259)
(-1.92697 1.55384e-19 -3.96075)
(-0.869382 -2.00822e-19 -5.00505)
(0.171043 -9.74364e-20 -5.64025)
(1.14077 8.90713e-20 -5.92636)
(2.06633 0 -5.96025)
(2.92679 -2.33461e-20 -5.80298)
(3.7112 1.63788e-20 -5.50606)
(4.41703 7.48153e-21 -5.11462)
(5.04681 4.54053e-21 -4.66688)
(5.60553 -1.04286e-21 -4.19396)
(6.09927 7.59538e-22 -3.72)
(6.53434 -7.87562e-22 -3.2626)
(6.91675 -9.5015e-22 -2.83361)
(7.25205 0 -2.4401)
(7.54537 -1.98965e-23 -2.0854)
(7.8014 -1.1403e-22 -1.77)
(8.02436 0 -1.49246)
(8.21792 0 -1.25)
(8.38525 -5.57541e-25 -1.03902)
(8.52847 -1.02916e-24 -0.855509)
(8.67581 0 -0.695334)
(-0.347471 5.20778e-20 7.34417)
(-1.14315 0 7.17055)
(-2.06472 -8.11326e-19 6.75922)
(-2.84393 1.21948e-18 5.9966)
(-3.42465 1.16927e-18 4.76314)
(-3.63809 -1.58493e-18 3.01365)
(-3.26692 0 0.833926)
(-2.54152 0 -1.41071)
(-1.61313 -1.7638e-19 -3.35919)
(-0.567847 4.5294e-19 -4.85062)
(0.449402 6.42248e-20 -5.83909)
(1.40547 -9.08524e-20 -6.39578)
(2.3132 8.43823e-20 -6.62203)
(3.15297 0 -6.58728)
(3.91267 2.69515e-21 -6.35714)
(4.58943 0 -5.98926)
(5.18684 2.75642e-21 -5.53247)
(5.71185 -6.65801e-22 -5.02663)
(6.17268 -9.14455e-21 -4.50308)
(6.57755 3.98749e-21 -3.98538)
(6.93389 -2.40414e-22 -3.49028)
(7.24802 9.32035e-22 -3.02884)
(7.52522 4.86736e-22 -2.60741)
(7.76989 2.75117e-22 -2.22865)
(7.98576 -1.40008e-23 -1.89249)
(8.17595 -1.42176e-23 -1.59696)
(8.34306 0 -1.33883)
(8.48922 1.73199e-23 -1.11414)
(8.61572 2.27312e-24 -0.918551)
(8.74736 -1.50638e-24 -0.747595)
(-0.237601 -4.92395e-20 8.18111)
(-0.770238 0 7.93611)
(-1.43971 0 7.42284)
(-2.00282 -3.54583e-19 6.48368)
(-2.38125 2.6821e-19 4.97713)
(-2.27878 6.97017e-19 2.83874)
(-1.56029 -3.60445e-19 0.276134)
(-0.730174 0 -2.20932)
(0.234138 -2.1137e-19 -4.27782)
(1.16379 -7.84299e-20 -5.67057)
(2.07469 0 -6.58999)
(2.93595 0 -7.08913)
(3.72625 -4.48271e-21 -7.24246)
(4.43191 -6.84116e-21 -7.1297)
(5.05016 0 -6.82374)
(5.58576 0 -6.38683)
(6.04773 -1.32947e-21 -5.86994)
(6.44675 1.32972e-21 -5.31324)
(6.79335 3.05935e-21 -4.74729)
(7.09688 1.55101e-22 -4.19443)
(7.36499 3.15062e-21 -3.67011)
(7.60363 -7.20403e-22 -3.18419)
(7.81726 1.02622e-22 -2.74203)
(8.00916 -1.72499e-22 -2.34549)
(8.18176 1.16207e-22 -1.99389)
(8.33687 0 -1.68479)
(8.47578 -3.25997e-23 -1.41463)
(8.59948 -3.43262e-23 -1.17915)
(8.70829 -3.68397e-24 -0.973834)
(8.82334 1.52261e-24 -0.793981)
(-0.019622 0 8.64823)
(-0.116018 -4.92825e-19 8.37398)
(-0.395021 4.53035e-19 7.83866)
(-0.645587 -1.30673e-19 6.81435)
(-0.705 1.74665e-19 5.11099)
(-0.094086 -4.6485e-19 2.37389)
(0.908724 -1.95295e-19 -0.565767)
(1.6399 -1.33978e-19 -3.03167)
(2.44168 0 -4.98593)
(3.25354 1.67531e-20 -6.3808)
(4.02767 -1.81096e-20 -7.25163)
(4.72779 5.95909e-21 -7.6758)
(5.33936 1.23839e-20 -7.74686)
(5.86021 6.1577e-21 -7.55434)
(6.29678 9.75695e-21 -7.17668)
(6.66037 2.72302e-22 -6.67877)
(6.96414 0 -6.11199)
(7.22093 -2.45809e-22 -5.51562)
(7.44205 2.48165e-22 -4.91861)
(7.63659 -2.57576e-21 -4.34151)
(7.81138 -2.05772e-21 -3.79811)
(7.97114 8.42115e-22 -3.29683)
(8.11891 -5.45887e-22 -2.84191)
(8.25645 0 -2.4344)
(8.38464 -1.52233e-22 -2.07308)
(8.50378 -1.06405e-22 -1.75514)
(8.6138 3.22857e-23 -1.47678)
(8.71447 1.92786e-23 -1.2336)
(8.80511 -7.57342e-25 -1.021)
(8.90304 3.44413e-25 -0.834226)
(0.306992 -8.22437e-19 8.57884)
(0.824927 -8.416e-19 8.35646)
(1.09053 8.88226e-19 7.89306)
(1.31782 1.07057e-18 6.75661)
(1.82607 -1.47668e-18 4.70509)
(2.82014 -8.17513e-19 1.90816)
(3.68427 1.74139e-19 -1.04521)
(4.36583 5.65251e-19 -3.62778)
(5.04841 1.34616e-19 -5.61476)
(5.68771 -1.40406e-19 -6.96811)
(6.24678 -3.12415e-21 -7.76349)
(6.71172 0 -8.10336)
(7.08395 -7.65037e-21 -8.09312)
(7.37314 0 -7.82892)
(7.5937 -3.78431e-23 -7.39221)
(7.76157 1.60575e-21 -6.84829)
(7.89186 -2.86766e-21 -6.24733)
(7.99749 5.63764e-21 -5.6266)
(8.08863 0 -5.01279)
(8.1726 0 -4.42432)
(8.25421 -1.96205e-21 -3.87313)
(8.33612 7.56631e-22 -3.36624)
(8.41936 -4.18674e-23 -2.90684)
(8.50383 0 -2.49532)
(8.58869 1.5047e-22 -2.13003)
(8.67266 9.39998e-23 -1.80795)
(8.75433 1.49559e-23 -1.52518)
(8.83228 -5.5499e-24 -1.27735)
(8.90487 -8.37956e-24 -1.05991)
(8.98562 -4.46591e-25 -0.868175)
(0.881604 -1.71443e-18 7.52303)
(2.15614 0 7.70834)
(2.99721 1.83161e-18 7.46795)
(3.72449 -6.8322e-19 6.31292)
(4.65456 -1.21032e-18 4.19915)
(5.89647 1.1585e-18 1.31676)
(6.77673 -1.83424e-18 -1.66946)
(7.42709 1.09717e-18 -4.20393)
(7.94427 -2.85186e-19 -6.10436)
(8.33629 1.39728e-20 -7.36467)
(8.60798 0 -8.0676)
(8.77588 -6.44311e-20 -8.32397)
(8.86096 1.03097e-19 -8.24439)
(8.88489 -2.53878e-20 -7.92702)
(8.86828 8.57608e-21 -7.45274)
(8.82914 -1.37739e-20 -6.88475)
(8.78189 -2.41544e-21 -6.27042)
(8.73715 -1.79958e-21 -5.64411)
(8.70204 0 -5.02992)
(8.68068 7.15376e-23 -4.44409)
(8.6748 1.91003e-21 -3.89695)
(8.68432 -7.59157e-22 -3.3943)
(8.70788 5.9717e-22 -2.93858)
(8.74333 4.4925e-22 -2.52974)
(8.78805 0 -2.16595)
(8.8393 -1.29978e-22 -1.84415)
(8.89438 1.20332e-23 -1.56053)
(8.9508 0 -1.31089)
(9.00612 9.88593e-24 -1.09088)
(9.07015 3.7115e-25 -0.896032)
(9.99642 1.77733e-21 0.123285)
(9.9846 -5.43625e-23 0.251053)
(9.96307 -1.63235e-21 0.387043)
(9.93214 -5.47715e-23 0.532204)
(9.89218 -1.69677e-23 0.684727)
(9.84345 -1.12508e-22 0.841546)
(9.7864 1.13067e-22 0.999692)
(9.72183 -7.39652e-21 1.15737)
(9.65073 1.50004e-20 1.31433)
(9.57419 -1.90109e-20 1.47182)
(9.49324 -1.13678e-20 1.63224)
(9.40886 7.79248e-21 1.7988)
(9.32197 7.94461e-21 1.97517)
(9.23343 -1.58663e-20 2.16529)
(9.14404 0 2.3732)
(9.0546 0 2.60315)
(8.96594 -3.20002e-20 2.85963)
(8.87892 8.15224e-20 3.14756)
(8.79451 5.63843e-20 3.47262)
(8.71382 -1.28403e-19 3.84159)
(8.63818 0 4.26293)
(8.56922 2.70479e-19 4.74762)
(8.50911 -2.37205e-19 5.31043)
(8.461 -4.25529e-19 5.97212)
(8.43013 -1.2991e-20 6.76329)
(8.42739 5.1404e-20 7.73164)
(8.47811 3.04687e-19 8.95671)
(8.71165 -1.67548e-20 10.5766)
(9.6914 -9.58177e-21 12.821)
(10.5977 1.68694e-20 16.4549)
(9.99686 -1.68779e-23 0.127525)
(9.98654 1.67362e-21 0.25969)
(9.96777 1.70012e-21 0.400357)
(9.94086 0 0.550485)
(9.90619 3.44832e-21 0.708152)
(9.86407 0 0.870116)
(9.81498 8.75425e-22 1.03322)
(9.75975 6.12889e-21 1.19552)
(9.69939 1.7756e-20 1.35666)
(9.63501 -3.60436e-21 1.5178)
(9.56775 7.60736e-21 1.68132)
(9.49874 -7.19414e-21 1.8504)
(9.42909 -1.49223e-20 2.02868)
(9.35994 0 2.22004)
(9.29247 -2.99704e-20 2.42847)
(9.22796 3.00374e-20 2.65809)
(9.16788 3.10028e-20 2.91322)
(9.11391 0 3.19856)
(9.06815 1.50275e-20 3.51944)
(9.03326 0 3.88214)
(9.01275 -1.39974e-20 4.2944)
(9.01146 1.88488e-19 4.76607)
(9.03648 -1.88104e-19 5.31007)
(9.09875 -3.23239e-19 5.94384)
(9.21664 4.04763e-19 6.69151)
(9.42396 0 7.58679)
(9.77999 0 8.67507)
(10.3711 1.57488e-20 10.0072)
(11.5388 -3.10979e-19 11.5276)
(12.7902 2.85245e-19 12.772)
(9.99732 -1.62632e-21 0.131273)
(9.98858 -1.63393e-21 0.267315)
(9.97269 0 0.412094)
(9.94995 0 0.566565)
(9.92076 0 0.728696)
(9.88543 -4.17142e-22 0.895068)
(9.8445 -5.40851e-21 1.06234)
(9.79879 -7.67602e-21 1.22841)
(9.74935 -1.38072e-20 1.39279)
(9.69732 1.3713e-20 1.55655)
(9.64394 1.41111e-20 1.722)
(9.59043 1.28761e-22 1.89224)
(9.53812 1.41959e-20 2.07083)
(9.48839 -2.86108e-20 2.26152)
(9.44278 5.7803e-20 2.46815)
(9.403 -9.00658e-22 2.6946)
(9.37108 0 2.94485)
(9.34946 9.88239e-20 3.22316)
(9.34122 -1.1934e-19 3.53416)
(9.35028 -2.15475e-19 3.8832)
(9.38189 2.33195e-19 4.27653)
(9.44327 2.43447e-20 4.72172)
(9.54466 -4.70672e-20 5.22798)
(9.70101 -4.47244e-20 5.80633)
(9.9346 -5.83925e-19 6.46927)
(10.2788 1.10252e-19 7.22878)
(10.7804 6.47681e-19 8.08882)
(11.4684 -3.00187e-19 9.03319)
(12.4779 5.87148e-20 10)
(13.8935 8.60741e-19 10.7201)
(9.99779 1.55326e-21 0.134478)
(9.99067 0 0.273818)
(9.97773 -1.56666e-21 0.422069)
(9.95927 0 0.580179)
(9.93568 3.98749e-22 0.746012)