/*--------------------------------*- C++ -*----------------------------------*\
| =========                 |                                                 |
| \\      /  F ield         | OpenFOAM: The Open Source CFD Toolbox           |
|  \\    /   O peration     | Version:  2012                                  |
|   \\  /    A nd           | Website:  www.openfoam.com                      |
|    \\/     M anipulation  |                                                 |
\*---------------------------------------------------------------------------*/
FoamFile
{
    version     2.0;
    format      ascii;
    class       surfaceVectorField;
    location    "0.3";
    object      Uf;
}
// * * * * * * * * * * * * * * * * * * * * * * * * * * * * * * * * * * * * * //

dimensions      [0 1 -1 0 0 0 0];


internalField   nonuniform List<vector> 
5457
(
(9.92377 3.02731e-24 0.0239864)
(9.97224 -6.14963e-23 0.0373275)
(9.83233 -1.97394e-22 0.030832)
(9.9329 -6.14968e-23 0.0458586)
(9.72565 -1.21827e-22 0.0362314)
(9.86484 -3.56129e-24 0.0547942)
(9.60154 -4.19573e-22 0.0415059)
(9.77212 5.20354e-22 0.0652858)
(9.46046 1.15568e-21 0.0465639)
(9.65951 -1.06931e-21 0.0759972)
(9.30356 -6.75726e-22 0.0513597)
(9.5284 1.67105e-21 0.0865506)
(9.1319 -1.67854e-21 0.0559999)
(9.37918 -2.30939e-21 0.0969643)
(8.94627 5.80507e-22 0.0606488)
(9.21248 4.67425e-21 0.107365)
(8.7471 -1.30482e-21 0.0654893)
(9.02917 -2.39628e-21 0.117941)
(8.5344 8.75382e-23 0.0707131)
(8.82987 -2.54243e-21 0.128946)
(8.3077 1.33097e-21 0.076512)
(8.61473 -2.578e-21 0.140678)
(8.06611 2.98931e-21 0.0830676)
(8.38341 -6.84891e-23 0.15345)
(7.80835 6.14423e-21 0.0905445)
(8.13513 -3.67775e-23 0.167562)
(7.53285 -1.0103e-20 0.0990877)
(7.86873 1.22148e-20 0.183282)
(7.23785 9.45016e-22 0.108823)
(7.58274 -1.93506e-20 0.20084)
(6.92151 2.09953e-20 0.119855)
(7.27552 7.08912e-21 0.220413)
(6.582 7.23599e-21 0.132269)
(6.94531 -6.84079e-21 0.24212)
(6.21767 4.24624e-21 0.146128)
(6.59043 -7.7406e-21 0.266011)
(5.82715 -3.63096e-20 0.161464)
(6.20932 -1.2243e-20 0.292055)
(5.4095 -2.0552e-20 0.178277)
(5.8008 4.37616e-20 0.320126)
(4.96438 -6.5088e-20 0.196524)
(5.36412 -1.2705e-19 0.349985)
(4.49216 5.1077e-20 0.216118)
(4.89921 2.25936e-19 0.381281)
(3.99407 1.77376e-19 0.236937)
(4.40673 -7.42954e-20 0.413543)
(3.47216 4.6911e-20 0.258841)
(3.88823 3.00223e-21 0.446201)
(2.92928 1.14327e-19 0.281716)
(3.34611 -5.87537e-19 0.478628)
(2.36875 -3.91944e-19 0.305523)
(2.78342 8.40799e-19 0.510208)
(1.79392 -2.20507e-19 0.330353)
(2.20346 -7.24004e-19 0.540395)
(1.2075 -1.08659e-18 0.356915)
(1.60938 -1.49181e-18 0.568678)
(0.608803 2.29592e-18 0.383754)
(0.99085 2.8983e-18 0.595776)
(0.439135 1.48036e-18 0.609477)
(9.99873 -1.25555e-22 0.0488114)
(9.99791 -2.44035e-22 0.037948)
(9.96464 1.33027e-22 0.0664216)
(9.98208 -2.02331e-25 0.0629568)
(9.90752 6.44503e-22 0.0821206)
(9.9408 7.03826e-25 0.0841298)
(9.8283 -1.48357e-22 0.0985303)
(9.87435 1.03194e-21 0.106957)
(9.72658 -5.21396e-22 0.115283)
(9.78553 -9.22627e-22 0.130797)
(9.60281 -9.68091e-24 0.131994)
(9.67534 2.72354e-22 0.154823)
(9.45799 4.12598e-21 0.148635)
(9.54408 -3.07801e-21 0.178772)
(9.29319 1.61384e-21 0.165376)
(9.39243 4.65875e-21 0.202681)
(9.10939 -3.63535e-21 0.182509)
(9.22136 -4.77921e-21 0.22678)
(8.90727 -5.20844e-21 0.200417)
(9.03175 1.22906e-21 0.251479)
(8.68708 -3.94867e-21 0.219544)
(8.82409 -1.38288e-21 0.277324)
(8.4486 -3.09534e-21 0.240346)
(8.59842 -1.14616e-20 0.304931)
(8.19114 6.17414e-21 0.263258)
(8.35429 -2.29788e-21 0.334927)
(7.91364 2.61182e-21 0.288665)
(8.09083 2.6668e-20 0.367898)
(7.6147 -1.29126e-20 0.316886)
(7.80683 -1.85614e-20 0.404359)
(7.29273 -2.09164e-20 0.348162)
(7.50079 6.68808e-21 0.444735)
(6.94605 -2.18367e-20 0.382637)
(7.17102 -4.1193e-20 0.489332)
(6.57304 -2.4291e-20 0.420346)
(6.81581 2.10558e-20 0.538322)
(6.17225 6.84995e-20 0.461193)
(6.43351 -1.6441e-20 0.591711)
(5.74263 -6.48209e-20 0.504928)
(6.02271 -1.34098e-20 0.64931)
(5.2836 1.68269e-19 0.551137)
(5.58238 -1.458e-19 0.710702)
(4.79532 9.6622e-20 0.599234)
(5.11205 3.08515e-19 0.775226)
(4.27871 -2.47886e-19 0.648486)
(4.61197 -2.05368e-19 0.841965)
(3.73559 -6.39813e-19 0.698081)
(4.08321 -2.13183e-19 0.909771)
(3.16857 1.57184e-19 0.747246)
(3.52774 -5.88812e-19 0.977356)
(2.58075 4.86165e-19 0.795444)
(2.94827 9.23607e-19 1.04345)
(1.97509 -2.00411e-18 0.842631)
(2.34793 1.70307e-18 1.10705)
(1.35328 2.53282e-18 0.890132)
(1.73048 -5.4644e-18 1.16771)
(0.712841 2.08407e-18 0.934088)
(1.0863 6.74081e-18 1.2278)
(0.4954 2.34441e-18 1.26973)
(9.99127 -1.15712e-22 0.0552198)
(9.99565 3.03389e-23 0.0422216)
(9.95993 -1.32572e-22 0.0836145)
(9.97717 9.31047e-23 0.0786769)
(9.90596 4.00392e-22 0.111384)
(9.93664 2.48681e-22 0.111847)
(9.83078 2.34474e-22 0.140759)
(9.8729 6.40286e-22 0.146502)
(9.73419 -1.14691e-22 0.171221)
(9.78747 -1.34115e-22 0.18283)
(9.61629 -2.83573e-21 0.202028)
(9.68118 8.09425e-22 0.219865)
(9.47772 -2.4534e-21 0.232875)
(9.55435 -3.11047e-23 0.257045)
(9.31939 -1.84578e-21 0.263825)
(9.40757 5.71894e-22 0.294256)
(9.14215 1.55119e-22 0.295217)
(9.2417 1.27905e-22 0.331734)
(8.94663 5.02328e-21 0.327611)
(9.05756 -2.54865e-21 0.370009)
(8.73307 -9.01175e-21 0.361714)
(8.8556 7.60897e-21 0.409847)
(8.50129 -1.05575e-20 0.398299)
(8.63586 -6.09143e-21 0.452144)
(8.25067 1.85257e-20 0.438134)
(8.39793 6.11619e-21 0.497839)
(7.98018 4.97753e-21 0.481929)
(8.14096 2.34462e-20 0.547836)
(7.68843 1.32684e-21 0.530295)
(7.86376 6.91928e-23 0.602952)
(7.37384 -1.41279e-20 0.583721)
(7.56481 1.35367e-20 0.66388)
(7.03463 2.41042e-21 0.64254)
(7.2424 -2.7027e-20 0.731155)
(6.66903 2.84644e-20 0.706901)
(6.89469 -8.38996e-20 0.80512)
(6.27538 -9.83161e-20 0.776728)
(6.51984 5.83473e-20 0.885884)
(5.85224 -9.60076e-20 0.851682)
(6.11616 2.76392e-20 0.973271)
(5.39865 0 0.931124)
(5.68224 -6.58336e-20 1.06677)
(4.91421 0 1.01409)
(5.21709 4.99114e-19 1.16547)
(4.3993 -1.70694e-19 1.09927)
(4.7204 -4.43303e-19 1.26806)
(3.85517 -1.67381e-19 1.18515)
(4.19262 4.79515e-19 1.37282)
(3.28398 1.97556e-19 1.27005)
(3.63517 -1.02314e-18 1.47769)
(2.68864 2.14982e-18 1.35249)
(3.05043 1.08649e-20 1.58047)
(2.07253 -1.84479e-18 1.43149)
(2.44168 1.93008e-18 1.67918)
(1.43899 -1.12453e-18 1.50769)
(1.81423 -3.70443e-18 1.77237)
(0.790109 6.95948e-18 1.5748)
(1.16178 2.04408e-18 1.86149)
(0.546801 4.41319e-18 1.92474)
(9.98737 2.39894e-22 0.0660239)
(9.9945 3.22289e-23 0.0484081)
(9.95586 4.76213e-22 0.106132)
(9.9743 -3.08236e-23 0.0944778)
(9.90287 4.93344e-22 0.146169)
(9.9336 1.12413e-24 0.139063)
(9.82896 2.62496e-22 0.187833)
(9.87105 -5.10249e-22 0.185381)
(9.73423 8.01178e-22 0.230818)
(9.78748 1.30238e-22 0.233859)
(9.61884 3.60374e-21 0.274359)
(9.68354 6.6938e-22 0.283516)
(9.48339 3.0013e-21 0.318036)
(9.55962 8.46079e-22 0.33356)
(9.3287 2.54008e-21 0.361884)
(9.41634 1.41971e-22 0.383723)
(9.1556 -2.60744e-21 0.406333)
(9.25453 2.40291e-21 0.434237)
(8.96467 1.55279e-22 0.452125)
(9.07495 3.71375e-22 0.485753)
(8.75615 1.03702e-20 0.500219)
(8.87803 -5.63321e-22 0.539245)
(8.52983 1.07224e-20 0.55168)
(8.6638 7.92482e-21 0.595883)
(8.28511 1.12359e-20 0.607585)
(8.43185 -1.88794e-20 0.65691)
(8.02095 1.82721e-20 0.668951)
(8.18136 5.81065e-21 0.723543)
(7.73598 1.24328e-20 0.736679)
(7.91111 1.27709e-20 0.796905)
(7.42856 1.81555e-22 0.811514)
(7.61958 -2.41738e-20 0.877975)
(7.09687 -1.13979e-19 0.894009)
(7.30498 2.56803e-20 0.967544)
(6.73897 -5.24188e-20 0.984477)
(6.96536 -8.5499e-20 1.06617)
(6.35298 1.83948e-19 1.08294)
(6.59868 5.8356e-20 1.17413)
(5.93714 5.67496e-20 1.18906)
(6.20294 6.45729e-20 1.29133)
(5.49003 4.40124e-19 1.30208)
(5.77631 -2.58461e-19 1.41724)
(5.01071 4.47032e-20 1.42074)
(5.31727 8.97657e-19 1.55081)
(4.49896 2.18523e-19 1.54328)
(4.82485 -5.86191e-19 1.69038)
(3.95543 -3.94734e-19 1.66742)
(4.29883 6.5025e-19 1.8336)
(3.38186 -1.19642e-18 1.79051)
(3.73999 -1.02025e-18 1.9775)
(2.7812 -1.82779e-19 1.90979)
(3.15045 1.2036e-18 2.11858)
(2.15776 0 2.02272)
(2.53381 -1.47062e-18 2.2531)
(1.51738 -4.72513e-19 2.12802)
(1.89723 0 2.3774)
(0.867325 -4.60822e-19 2.21529)
(1.23955 -2.48745e-19 2.48989)
(0.601657 1.16957e-19 2.56387)
(9.98554 -2.39291e-22 0.0774566)
(9.99397 -3.03774e-23 0.0554899)
(9.95356 -5.05525e-22 0.127742)
(9.97294 3.0527e-23 0.110515)
(9.9015 -1.00857e-21 0.178868)
(9.93233 -5.61752e-22 0.1658)
(9.8291 -6.34899e-22 0.232102)
(9.87109 -1.32622e-21 0.223468)
(9.73646 4.95617e-24 0.287183)
(9.78962 -2.58696e-22 0.283762)
(9.62381 -2.08622e-21 0.343242)
(9.68839 2.23495e-21 0.345658)
(9.49171 -2.02151e-21 0.399665)
(9.56779 -3.36831e-23 0.408179)
(9.34096 3.13512e-23 0.456389)
(9.42845 1.41971e-22 0.470915)
(9.17234 5.35754e-21 0.513874)
(9.27119 4.46828e-21 0.534084)
(8.98643 -3.58001e-22 0.573011)
(9.09675 1.01287e-20 0.598452)
(8.78345 -2.91012e-21 0.634989)
(8.90556 -5.63039e-21 0.665199)
(8.56322 -2.19836e-20 0.701157)
(8.69765 2.62485e-21 0.735759)
(8.3251 -2.40222e-20 0.772897)
(8.47262 -1.36714e-20 0.811676)
(8.06808 3.89417e-22 0.851537)
(8.22964 -2.19209e-20 0.894481)
(7.79077 -2.42486e-20 0.938281)
(7.96751 2.30503e-20 0.985614)
(7.49149 1.88504e-21 1.03416)
(7.68466 4.77511e-20 1.08636)
(7.16828 5.29055e-20 1.13998)
(7.37924 -4.88789e-20 1.19779)
(6.81907 2.69014e-20 1.25627)
(7.04914 1.5903e-19 1.32074)
(6.44168 -6.09547e-20 1.38322)
(6.69209 -1.62603e-19 1.45571)
(6.03398 -2.54428e-19 1.52057)
(6.30573 1.72238e-19 1.60279)
(5.59402 2.12509e-19 1.66752)
(5.88773 -1.87019e-19 1.76153)
(5.12023 2.49302e-19 1.82261)
(5.43591 -3.67635e-19 1.93082)
(4.61163 -1.39038e-19 1.98359)
(4.9485 3.87529e-19 2.10872)
(4.06818 4.12718e-21 2.14739)
(4.42439 1.44826e-19 2.29228)
(3.4911 1.40839e-18 2.31008)
(3.86353 -1.06072e-18 2.47741)
(2.88337 -1.15671e-19 2.46707)
(3.26751 3.95301e-18 2.6589)
(2.25031 -1.45173e-18 2.61342)
(2.64004 -7.32289e-20 2.83049)
(1.6003 2.20388e-19 2.7446)
(1.98972 -2.936e-18 2.98518)
(0.945336 3.3283e-19 2.84396)
(1.32162 3.41809e-18 3.11666)
(0.658305 -3.52526e-18 3.18936)
(9.98475 2.4021e-22 0.0892172)
(9.99378 1.96778e-22 0.0629556)
(9.95269 -3.27652e-23 0.149115)
(9.97253 7.61427e-23 0.126598)
(9.90176 -8.885e-22 0.210982)
(9.93243 -5.84308e-22 0.191955)
(9.83127 -9.37344e-22 0.275619)
(9.87279 1.86339e-22 0.26055)
(9.74119 2.00094e-21 0.342578)
(9.7938 8.89745e-22 0.332287)
(9.63178 4.26062e-21 0.410828)
(9.69575 -2.20056e-21 0.406012)
(9.5036 2.13187e-21 0.479591)
(9.57902 1.46307e-22 0.480583)
(9.35743 4.62971e-21 0.548725)
(9.44425 4.37781e-21 0.555455)
(9.19405 9.30561e-21 0.618747)
(9.29228 4.54464e-21 0.630833)
(9.01402 4.67294e-21 0.690707)
(9.12383 4.50239e-23 0.707589)
(8.81756 0 0.766033)
(8.93933 2.43406e-21 0.787101)
(8.60451 1.07485e-20 0.846356)
(8.73882 -2.47369e-21 0.871065)
(8.37425 -1.16645e-20 0.933369)
(8.52194 1.06267e-20 0.961322)
(8.12577 1.24427e-21 1.02872)
(8.28787 -2.16917e-20 1.05972)
(7.85766 9.5325e-20 1.13393)
(8.0354 -2.19601e-20 1.16803)
(7.56817 -4.07297e-21 1.25033)
(7.76297 1.19064e-19 1.28785)
(7.25526 5.95538e-20 1.37905)
(7.46862 -1.22364e-19 1.42061)
(6.91663 -3.40112e-20 1.52088)
(7.15011 1.06487e-19 1.56744)
(6.54978 7.4299e-20 1.67627)
(6.80491 -1.09721e-19 1.72917)
(6.15212 2.3579e-19 1.84513)
(6.43024 4.54534e-19 1.90616)
(5.72106 -7.69199e-19 2.02674)
(6.02319 1.08131e-20 2.09821)
(5.25419 -2.21536e-19 2.21953)
(5.58077 -1.49121e-18 2.30428)
(4.74959 6.68938e-19 2.42083)
(5.10018 1.02967e-18 2.52228)
(4.20617 -9.34336e-19 2.62668)
(4.57908 -3.92686e-19 2.74872)
(3.62425 1.5431e-18 2.83165)
(4.01612 -4.39611e-19 2.97837)
(3.00638 3.94925e-18 3.02874)
(3.41175 2.56534e-18 3.20393)
(2.35844 -1.59069e-18 3.20966)
(2.7691 1.39816e-18 3.41596)
(1.69086 3.51711e-19 3.36537)
(2.09723 -3.01947e-18 3.60311)
(1.01931 -5.4668e-19 3.47018)
(1.40696 3.19728e-18 3.75307)
(0.713483 -3.5595e-18 3.81588)
(9.98456 3.13206e-23 0.10105)
(9.99378 -8.32947e-26 0.0705154)
(9.95284 -4.83288e-22 0.170133)
(9.97275 -4.51141e-22 0.142505)
(9.9033 4.99702e-22 0.242258)
(9.93356 -9.31478e-23 0.217405)
(9.83505 2.02175e-21 0.317853)
(9.87582 1.06553e-21 0.296446)
(9.74798 -3.34828e-21 0.396229)
(9.79966 4.15902e-24 0.379193)
(9.64234 -6.2867e-21 0.476186)
(9.70526 -2.36301e-21 0.464289)
(9.5187 2.44236e-21 0.556798)
(9.59297 -1.8796e-21 0.550423)
(9.37783 4.29521e-21 0.637857)
(9.46344 3.12017e-23 0.636929)
(9.2205 -4.76748e-21 0.719924)
(9.31752 -4.21963e-21 0.723995)
(9.04729 -2.1656e-21 0.8042)
(9.15592 4.16311e-21 0.812592)
(8.85843 -9.63097e-23 0.892337)
(8.9791 1.42344e-20 0.904288)
(8.65377 -2.4454e-21 0.986243)
(8.78713 -9.82807e-21 1.00103)
(8.43274 2.28966e-22 1.08792)
(8.57967 -9.56531e-23 1.10496)
(8.19433 -4.48974e-20 1.19933)
(8.35596 -4.90394e-21 1.21824)
(7.93715 3.35068e-21 1.32234)
(8.11482 -1.20743e-20 1.34297)
(7.65941 -1.88623e-21 1.45862)
(7.85467 6.92534e-20 1.48111)
(7.35896 -7.29057e-20 1.60966)
(7.57352 2.2448e-20 1.63444)
(7.03328 2.84126e-20 1.77661)
(7.269 -4.92609e-20 1.80452)
(6.67956 2.76723e-19 1.96026)
(6.93832 -4.87188e-20 1.99256)
(6.29465 2.24887e-19 2.16086)
(6.5783 3.25398e-19 2.19936)
(5.87523 -7.27475e-19 2.37793)
(6.18535 2.24868e-19 2.42511)
(5.41787 -2.12641e-19 2.60996)
(5.75559 -1.06224e-18 2.66908)
(4.91933 -4.80217e-20 2.85405)
(5.2849 4.99357e-19 2.9293)
(4.37701 1.0093e-19 3.10546)
(4.76929 -5.36063e-19 3.20198)
(3.78963 6.17036e-19 3.3571)
(4.20544 4.95216e-19 3.48085)
(3.15842 0 3.59916)
(3.59167 0 3.75648)
(2.48877 -8.48377e-20 3.81915)
(2.92934 0 4.01574)
(1.79231 -8.2396e-20 4.00241)
(2.22653 -1.28657e-18 4.24185)
(1.08732 7.66526e-20 4.11118)
(1.49754 1.33552e-18 4.41554)
(0.765899 4.64681e-20 4.4664)
(9.98473 -4.8793e-22 0.11274)
(9.9939 -4.58801e-22 0.0779907)
(9.95374 -5.67375e-23 0.190612)
(9.97339 -4.57633e-23 0.158048)
(9.90584 4.86493e-22 0.272495)
(9.93546 4.59249e-22 0.242006)
(9.84018 -9.64626e-22 0.358563)
(9.87995 6.18836e-23 0.330984)
(9.75655 9.6121e-22 0.447878)
(9.80699 -1.07656e-21 0.424247)
(9.65519 2.0497e-21 0.539046)
(9.71669 2.00331e-21 0.520201)
(9.5367 -4.26771e-21 0.630992)
(9.60937 1.31229e-22 0.617356)
(9.40183 -8.53255e-21 0.723439)
(9.48572 -9.55186e-23 0.714931)
(9.25137 4.80936e-21 0.816986)
(9.34657 -4.05038e-21 0.813093)
(9.08589 2.06801e-20 0.912972)
(9.19267 -3.41558e-22 0.912903)
(8.90567 4.22531e-21 1.01327)
(9.02448 3.65104e-21 1.01611)
(8.71061 -7.36726e-21 1.12005)
(8.84214 -6.12887e-21 1.1249)
(8.50016 -5.28671e-21 1.23562)
(8.64535 2.43574e-21 1.24171)
(8.2734 2.783e-20 1.36228)
(8.43344 3.05215e-20 1.369)
(8.02894 5.47309e-20 1.50223)
(8.20527 3.25437e-20 1.50922)
(7.765 9.30792e-20 1.65754)
(7.95933 -2.11335e-20 1.6647)
(7.47935 4.53361e-20 1.83008)
(7.69361 9.29723e-20 1.83764)
(7.16931 -1.26388e-19 2.02147)
(7.40566 -9.33092e-20 2.03003)
(6.83174 3.88814e-21 2.23297)
(7.09251 -2.22347e-19 2.24363)
(6.46298 3.24372e-19 2.46533)
(6.75059 2.01701e-19 2.47981)
(6.05886 -1.23267e-19 2.71856)
(6.37569 4.27144e-19 2.73938)
(5.61477 -3.33756e-19 2.99151)
(5.9629 -4.94111e-19 3.02225)
(5.12583 0 3.28138)
(5.50664 4.44334e-19 3.32694)
(4.58727 -1.30781e-19 3.58295)
(5.00081 -8.86173e-19 3.64984)
(3.99528 -1.27926e-19 3.88771)
(4.43927 3.88628e-19 3.98417)
(3.34838 0 4.18291)
(3.81694 -7.62675e-21 4.31871)
(2.64987 -1.21977e-18 4.45108)
(3.13156 1.05533e-18 4.63646)
(1.91117 1.73656e-19 4.6707)
(2.38823 -2.29781e-18 4.91408)
(1.15269 1.28219e-18 4.78834)
(1.60034 1.20537e-19 5.12378)
(0.817243 1.28713e-18 5.16753)
(9.98515 -1.17303e-23 0.124128)
(9.99411 4.70224e-22 0.0852615)
(9.95521 4.7624e-22 0.210393)
(9.97435 4.5098e-22 0.173067)
(9.90925 2.99134e-23 0.301536)
(9.93799 6.04427e-23 0.265609)
(9.8465 -6.35958e-23 0.397564)
(9.88501 -3.03892e-23 0.363991)
(9.76672 2.11739e-24 0.497295)
(9.8156 -2.03586e-21 0.467227)
(9.67014 6.27021e-23 0.599124)
(9.72982 6.34532e-23 0.573478)
(9.55736 4.30072e-21 0.701823)
(9.628 -1.29264e-22 0.681061)
(9.42916 4.34018e-21 0.805046)
(9.51082 4.34351e-21 0.789079)
(9.28631 -9.15665e-21 0.909422)
(9.37913 4.42253e-21 0.897678)
(9.12944 -1.73215e-20 1.01642)
(9.23369 -1.79736e-20 1.008)
(8.95886 -6.81453e-21 1.12812)
(9.07504 -2.68035e-22 1.12195)
(8.77452 3.77187e-21 1.24696)
(8.90334 9.30432e-21 1.24195)
(8.57599 3.85572e-20 1.37552)
(8.71842 4.9138e-21 1.3707)
(8.36239 3.52547e-20 1.51644)
(8.51967 1.57242e-20 1.51098)
(8.13243 -4.39091e-20 1.67228)
(8.30609 2.01921e-20 1.66557)
(7.88436 -1.99939e-20 1.8455)
(8.07624 -2.18788e-20 1.83718)
(7.61596 -4.76509e-20 2.03845)
(7.8282 1.31869e-21 2.02844)
(7.32447 -1.90638e-19 2.25326)
(7.55953 -6.94002e-20 2.24188)
(7.00647 -2.0151e-20 2.49181)
(7.26715 -7.49986e-20 2.47986)
(6.65784 3.0681e-19 2.75557)
(6.94723 1.21506e-19 2.7445)
(6.27361 4.69742e-20 3.04532)
(6.59503 2.07424e-19 3.0375)
(5.84788 2.93803e-19 3.36071)
(6.20468 -1.56821e-19 3.35979)
(5.37383 -4.55514e-19 3.69958)
(5.76903 6.50527e-19 3.71095)
(4.84394 -3.53579e-19 4.05692)
(5.27955 -1.12575e-18 4.08835)
(4.25066 5.04854e-19 4.42347)
(4.7265 9.56108e-20 4.48566)
(3.58798 1.06128e-18 4.78393)
(4.09981 4.19601e-19 4.89089)
(2.85457 -6.90834e-20 5.11543)
(3.39099 1.05641e-18 5.2838)
(2.05913 -2.31198e-18 5.38782)
(2.59905 -5.78834e-19 5.6336)
(1.22345 1.41059e-19 5.52679)
(1.72907 -2.29249e-18 5.90112)
(0.873072 1.89322e-18 5.95131)
(9.98574 9.32694e-22 0.135093)
(9.99437 4.73725e-22 0.0922436)
(9.9571 3.05285e-23 0.229335)
(9.97555 0 0.187431)
(9.91336 -9.44151e-25 0.329228)
(9.94101 3.01685e-23 0.288074)
(9.85383 -2.02651e-21 0.434664)
(9.89085 -3.03891e-23 0.395304)
(9.77827 -1.94959e-21 0.544236)
(9.82531 5.4267e-23 0.50793)
(9.68693 -1.30794e-22 0.656123)
(9.74444 -6.19383e-23 0.623866)
(9.58041 -3.31536e-23 0.76894)
(9.64858 -4.16501e-21 0.741234)
(9.45948 4.4273e-21 0.882266)
(9.53841 -4.06436e-21 0.859018)
(9.32496 -4.65599e-21 0.996757)
(9.41481 3.14972e-23 0.977332)
(9.1775 -7.14929e-22 1.114)
(9.27857 -8.70451e-21 1.09738)
(9.01748 1.59609e-20 1.23625)
(9.13026 -9.86695e-21 1.22123)
(8.84494 1.03962e-20 1.36619)
(8.97016 -1.12938e-20 1.35151)
(8.65954 -1.77926e-20 1.5067)
(8.79819 3.54304e-21 1.49115)
(8.46055 7.13917e-22 1.66071)
(8.61389 -8.82782e-22 1.64323)
(8.24681 4.17565e-20 1.83115)
(8.41641 3.01429e-22 1.81086)
(8.01668 -3.12486e-22 2.02091)
(8.20448 4.19764e-20 1.99712)
(7.76802 -2.11765e-20 2.2328)
(7.97634 -2.14036e-20 2.20511)
(7.49809 4.6186e-20 2.46957)
(7.72966 0 2.43788)
(7.20337 6.86729e-20 2.73386)
(7.46143 1.28752e-21 2.69852)
(6.87941 2.29591e-20 3.02804)
(7.16774 7.86257e-20 2.99003)
(6.52057 0 3.35402)
(6.84353 -4.50888e-20 3.31525)
(6.11974 2.08018e-19 3.71278)
(6.4822 0 3.67658)
(5.66806 -3.74014e-20 4.10361)
(6.0752 2.0603e-19 4.07539)
(5.15476 -6.64041e-19 4.52282)
(5.61151 -2.12516e-19 4.51109)
(4.56741 1.3715e-20 4.96177)
(5.07724 -4.23343e-19 4.97941)
(3.89316 4.22149e-19 5.404)
(4.45578 5.02127e-19 5.46964)
(3.12227 5.24282e-19 5.82164)
(3.72907 2.58229e-19 5.96041)
(2.25577 -5.90324e-19 6.17412)
(2.88503 3.00001e-19 6.41391)
(1.31332 -4.74386e-19 6.3589)
(1.90842 -1.13367e-18 6.77631)
(0.945933 3.81756e-19 6.86336)
(9.98646 -4.64612e-22 0.145539)
(9.99468 -4.69318e-22 0.0988742)
(9.95933 0 0.247316)
(9.97693 -9.14528e-25 0.201035)
(9.91805 0 0.35543)
(9.94443 9.26979e-22 0.309278)
(9.86201 2.05126e-21 0.469691)
(9.89735 9.96682e-22 0.42478)
(9.79102 1.9404e-21 0.588486)
(9.83596 1.99699e-21 0.546175)
(9.70532 -4.14473e-21 0.70978)
(9.76036 -6.19381e-23 0.671141)
(9.60553 -8.19446e-21 0.832027)
(9.67087 3.95524e-21 0.797605)
(9.49244 -8.41088e-21 0.954729)
(9.5682 -1.07597e-22 0.924424)
(9.36689 -4.11979e-21 1.07855)
(9.45324 -3.99118e-21 1.05168)
(9.22957 -1.78697e-20 1.20519)
(9.32683 1.7337e-20 1.18062)
(9.08095 -3.71347e-20 1.33705)
(9.18961 -9.53844e-21 1.31344)
(8.92118 -1.79768e-20 1.47705)
(9.04195 -1.89575e-20 1.45295)
(8.75006 2.04026e-20 1.62831)
(8.88391 1.88594e-20 1.60231)
(8.56703 -1.27688e-21 1.79407)
(8.71521 -1.75629e-20 1.76485)
(8.3711 9.75454e-22 1.9776)
(8.53522 -2.04781e-20 1.94399)
(8.16087 2.02033e-20 2.18219)
(8.34289 3.96923e-20 2.14318)
(7.93439 0 2.41116)
(8.13673 0 2.36592)
(7.68907 -4.48804e-20 2.66792)
(7.91468 -1.02129e-20 2.61585)
(7.4215 1.20167e-20 2.95592)
(7.67398 -5.51217e-20 2.89677)
(7.12715 9.36534e-21 3.27867)
(7.41091 6.61119e-20 3.21269)
(6.80002 -4.46527e-20 3.63955)
(7.12044 -4.57525e-20 3.56782)
(6.43211 0 4.04144)
(6.79568 1.05236e-20 3.9664)
(6.01276 2.68082e-20 4.48609)
(6.42721 0 4.41235)
(5.52787 2.62701e-20 4.97269)
(6.00199 4.78673e-20 4.90847)
(4.9593 7.53404e-20 5.49556)
(5.50211 -1.31749e-19 5.45475)
(4.28501 3.35197e-19 6.04008)
(4.90353 7.48706e-20 6.04521)
(3.48164 3.39452e-20 6.57605)
(4.17508 2.12016e-19 6.66205)
(2.53364 -2.69922e-19 7.05219)
(3.28624 -1.303e-19 7.26474)
(1.44847 -2.53984e-19 7.32852)
(2.18218 -6.30491e-20 7.78371)
(1.06217 -1.84893e-19 7.96887)
(9.98728 -2.78856e-26 0.155391)
(9.99503 4.51641e-24 0.105103)
(9.96185 9.37134e-22 0.264229)
(9.97846 -9.33409e-22 0.213791)
(9.92324 1.92449e-21 0.380012)
(9.94818 -9.44997e-24 0.329108)
(9.87095 9.54313e-22 0.502488)
(9.9044 6.20863e-23 0.452283)
(9.80482 -2.97915e-23 0.629851)
(9.84744 -4.50483e-23 0.581797)
(9.72513 8.08508e-21 0.759861)
(9.7774 1.21674e-22 0.715105)
(9.63249 1.19937e-20 0.890807)
(9.69464 3.91124e-21 0.849936)
(9.52772 4.26647e-21 1.02211)
(9.59989 -2.28368e-22 0.985018)
(9.41169 1.77132e-20 1.15443)
(9.49405 8.62314e-21 1.12038)
(9.28515 2.53537e-20 1.28953)
(9.37802 1.60964e-20 1.25732)
(9.14866 8.52706e-21 1.42999)
(9.2525 8.30432e-22 1.39812)
(9.00251 1.83067e-20 1.57889)
(9.118 8.06094e-21 1.54574)
(8.84667 -1.95105e-20 1.73958)
(8.97473 9.38061e-22 1.70354)
(8.68078 -3.67925e-20 1.91557)
(8.82264 -1.83566e-20 1.87507)
(8.50412 1.88947e-20 2.11043)
(8.66133 -5.91591e-22 2.06401)
(8.31559 1.9064e-20 2.32784)
(8.49008 -4.43187e-21 2.27411)
(8.11355 -1.03201e-20 2.57161)
(8.30776 2.83644e-20 2.50928)
(7.89577 -2.09125e-20 2.84578)
(8.11275 -1.5027e-20 2.77367)
(7.6592 1.84925e-22 3.15468)
(7.90277 -5.77094e-21 3.07179)
(7.39958 9.89708e-21 3.50304)
(7.6746 5.73746e-21 3.40867)
(7.11105 9.98212e-21 3.89598)
(7.42372 1.48165e-20 3.78995)
(6.78535 1.04229e-20 4.33885)
(7.14367 1.03206e-20 4.22201)
(6.41077 2.15444e-20 4.83685)
(6.82509 -5.42158e-22 4.71194)
(5.97063 -1.12043e-19 5.39401)
(6.45418 2.13385e-20 5.26721)
(5.4413 -1.29964e-19 6.01092)
(6.01045 -9.3197e-20 5.89465)
(4.78999 -4.68768e-20 6.68021)
(5.46334 -7.10829e-20 6.59789)
(3.97392 4.23904e-20 7.37666)
(4.76685 -4.66181e-20 7.37121)
(2.94647 7.85258e-20 8.04409)
(3.86349 7.84288e-21 8.18391)
(1.67836 3.6727e-21 8.49621)
(2.62781 1.52301e-19 8.96079)
(1.27651 -3.79632e-19 9.3665)
(9.98818 -9.40069e-22 0.164586)
(9.9954 3.60726e-24 0.110892)
(9.96458 -1.86898e-21 0.279982)
(9.98011 9.08408e-22 0.225628)
(9.92882 -1.87101e-21 0.402859)
(9.95218 -9.36443e-22 0.347471)
(9.88051 -9.38543e-22 0.532912)
(9.91189 -9.36416e-22 0.4777)
(9.81951 1.08397e-22 0.668161)
(9.85956 -1.30588e-23 0.614657)
(9.74612 -4.00678e-21 0.806161)
(9.79534 2.41647e-22 0.755587)
(9.66099 -8.3585e-21 0.945037)
(9.71962 -4.19941e-21 0.898024)
(9.56495 4.23279e-21 1.08411)
(9.63313 -8.68529e-21 1.04056)
(9.45891 7.09506e-21 1.22404)
(9.53681 8.75655e-21 1.18317)
(9.34369 -8.60235e-21 1.36665)
(9.4316 -1.03861e-20 1.32716)
(9.21995 4.45741e-22 1.51461)
(9.3183 2.02095e-21 1.47489)
(9.08812 -9.38634e-21 1.67115)
(9.19755 9.77222e-21 1.62943)
(8.94839 1.87451e-21 1.83984)
(9.06973 -1.88969e-20 1.7943)
(8.80064 1.80364e-20 2.02438)
(8.93504 1.38365e-20 1.97322)
(8.64448 -2.3954e-20 2.22861)
(8.79338 4.42742e-21 2.17007)
(8.47917 5.2225e-21 2.45654)
(8.64442 -2.36955e-20 2.38885)
(8.30356 2.32048e-20 2.71238)
(8.4875 2.78533e-20 2.63379)
(8.11597 2.05757e-22 3.00076)
(8.32156 -2.33316e-20 2.90946)
(7.91395 -1.0003e-22 3.32684)
(8.14504 2.34391e-20 3.22099)
(7.69402 1.07464e-20 3.69656)
(7.9556 -4.33339e-20 3.57428)
(7.45106 1.51266e-20 4.11684)
(7.74979 4.78439e-20 3.97634)
(7.17755 -7.25565e-22 4.5958)
(7.52245 7.32053e-20 4.43566)
(6.86216 -5.36878e-22 5.1429)
(7.26564 -9.20224e-20 4.9627)
(6.48757 3.90611e-20 5.7688)
(6.96703 -3.4095e-20 5.57036)
(6.02689 -3.40484e-20 6.48429)
(6.60682 3.86702e-20 6.2745)
(5.43807 -7.05536e-20 7.29718)
(6.15262 -2.64725e-21 7.09365)
(4.65569 -8.08201e-20 8.20242)
(5.54814 5.58268e-20 8.04652)
(3.5832 8.47177e-20 9.16244)
(4.70717 -1.86826e-19 9.13901)
(2.09914 -2.37656e-19 9.95579)
(3.39139 2.97727e-19 10.3366)
(1.71415 -3.64203e-19 11.2417)
(9.98914 1.86285e-21 0.173078)
(9.99579 0 0.116212)
(9.96747 1.8189e-21 0.294505)
(9.98185 9.25088e-22 0.236493)
(9.93472 -1.85345e-24 0.423881)
(9.9564 -2.87322e-23 0.364294)
(9.89054 5.21967e-26 0.560855)
(9.91974 5.59712e-23 0.500939)
(9.83488 1.23215e-22 0.703281)
(9.87221 -1.88358e-21 0.644642)
(9.76805 -3.57911e-24 0.84852)
(9.81402 6.0841e-23 0.792451)
(9.69072 -4.57912e-21 0.994531)
(9.74556 1.78256e-22 0.941707)
(9.60375 -3.95545e-21 1.14054)
(9.6676 3.09095e-21 1.09087)
(9.50807 -8.94545e-21 1.28716)
(9.58111 -1.63016e-20 1.23983)
(9.40459 3.8057e-22 1.43624)
(9.48706 -3.14981e-22 1.38989)
(9.29408 1.14349e-20 1.59056)
(9.38637 9.39376e-21 1.54345)
(9.17713 -6.41625e-23 1.75344)
(9.27979 6.26246e-21 1.70367)
(9.05414 -6.56726e-21 1.92859)
(9.16792 -6.3058e-21 1.87417)
(8.92531 1.22557e-22 2.11988)
(9.05121 -4.40111e-21 2.05879)
(8.7906 4.3791e-21 2.33134)
(8.92991 -4.1999e-21 2.26153)
(8.64972 -5.09392e-22 2.5672)
(8.80411 8.65698e-21 2.48658)
(8.50212 -1.92102e-20 2.832)
(8.6737 -1.82776e-20 2.73836)
(8.34683 3.70308e-22 3.13082)
(8.53833 8.06659e-21 3.02172)
(8.18235 -2.04636e-20 3.46947)
(8.39734 -1.66546e-20 3.3422)
(8.00638 -5.36698e-21 3.85491)
(8.24962 -3.72889e-20 3.70634)
(7.81534 1.06186e-19 4.29566)
(8.09332 1.01397e-19 4.12218)
(7.60365 -1.95539e-20 4.80245)
(7.92547 5.03686e-21 4.59989)
(7.36239 -1.24993e-19 5.38909)
(7.74122 -9.14632e-20 5.15276)
(7.07695 -3.37459e-20 6.07366)
(7.53249 -1.13376e-21 5.79872)
(6.72262 6.93876e-20 6.88007)
(7.28549 0 6.56279)
(6.25596 1.24308e-19 7.83984)
(6.9758 6.86345e-20 7.4811)
(5.59727 -5.39177e-20 8.99145)
(6.55515 1.75029e-19 8.60796)
(4.59271 4.14484e-20 10.3778)
(5.93997 -4.00415e-19 10.0252)
(2.9332 1.67772e-19 11.875)
(4.7839 2.32127e-19 11.8674)
(2.70802 5.04035e-20 13.989)
(9.99014 -9.26673e-22 0.180827)
(9.9962 8.71969e-22 0.12104)
(9.97051 -9.33887e-22 0.307737)
(9.98365 -9.59614e-22 0.246339)
(9.94088 3.01005e-23 0.442997)
(9.96076 -8.30114e-22 0.379514)
(9.90098 -1.85074e-21 0.586206)
(9.92786 3.20176e-23 0.521923)
(9.85082 -1.92287e-21 0.735069)
(9.88529 -1.92903e-21 0.671664)
(9.79075 2.44063e-22 0.886756)
(9.8333 -1.1544e-22 0.825592)
(9.72143 7.88209e-21 1.03906)
(9.77232 3.60042e-22 0.980863)
(9.64376 -9.48231e-21 1.1911)
(9.70312 4.00967e-21 1.13579)
(9.55871 -7.48326e-21 1.34344)
(9.62672 -9.64932e-21 1.29019)
(9.46727 8.81056e-21 1.49795)
(9.54414 -2.4693e-22 1.44531)
(9.37032 4.18543e-21 1.65742)
(9.45638 -5.57717e-21 1.6036)
(9.26863 -1.20786e-22 1.82527)
(9.36435 8.03862e-21 1.76823)
(9.16283 -4.11827e-21 2.00528)
(9.26885 -3.4551e-22 1.94287)
(9.05342 -8.72248e-21 2.20142)
(9.1706 -7.78431e-21 2.13144)
(8.94077 2.14835e-22 2.41782)
(9.07021 -8.78857e-21 2.33799)
(8.82511 -9.39322e-21 2.65885)
(8.96824 8.81887e-21 2.56676)
(8.70655 9.28174e-21 2.92922)
(8.86517 -3.37997e-20 2.82225)
(8.585 -9.19862e-21 3.23424)
(8.76146 6.70812e-20 3.10941)
(8.46012 -3.36853e-20 3.58012)
(8.6575 -8.16339e-21 3.43392)
(8.33118 7.08112e-20 3.97444)
(8.5536 -6.18627e-20 3.80258)
(8.19684 -5.84279e-22 4.42678)
(8.44996 7.03062e-20 4.22386)
(8.05467 -6.7691e-20 4.94967)
(8.34654 6.30713e-20 4.70872)
(7.9004 3.32112e-20 5.56016)
(8.24291 -1.16387e-19 5.27189)
(7.72641 3.25384e-20 6.2824)
(8.13799 -1.75288e-19 5.93404)
(7.51865 0 7.15224)
(8.02963 -6.37366e-21 6.72572)
(7.24965 1.21575e-19 8.2264)
(7.91436 2.52169e-20 7.69505)
(6.86086 -1.74178e-19 9.60258)
(7.78554 2.71795e-19 8.9254)
(6.20593 -1.87164e-19 11.4981)
(7.67198 -3.07277e-19 10.5834)
(4.79138 1.3355e-19 14.5896)
(7.65257 8.17384e-20 13.1443)
(6.93118 -1.59926e-20 18.6096)
(-0.35846 1.2442e-18 0.17164)
(-0.173218 -1.12468e-18 0.34215)
(-0.759806 -5.1979e-19 0.178803)
(-0.561648 0 0.366919)
(-1.17036 4.47301e-19 0.17326)
(-0.980647 -5.27025e-19 0.367145)
(-1.56125 5.32946e-19 0.155744)
(-1.39433 5.20487e-19 0.344183)
(-1.90928 -5.81716e-19 0.126967)
(-1.77652 1.11133e-18 0.302219)
(-2.18637 -8.51304e-21 0.0880449)
(-2.10072 -8.73231e-19 0.237143)
(-2.36608 1.04251e-19 0.0402881)
(-2.33228 -3.97763e-19 0.151312)
(-2.42715 4.22531e-20 -0.0141792)
(-2.45054 3.94831e-19 0.0504259)
(-2.35327 8.06724e-22 -0.073201)
(-2.44431 -4.58198e-20 -0.0601429)
(-2.1339 -2.46345e-20 -0.133265)
(-2.28619 3.7729e-20 -0.174555)
(-1.76569 3.55683e-20 -0.189225)
(-1.98905 8.08133e-22 -0.286438)
(-1.25816 1.70877e-20 -0.23595)
(-1.52862 9.00091e-22 -0.385662)
(-0.635211 0 -0.269667)
(-0.947559 1.39801e-20 -0.462106)
(0.0723333 -1.9797e-21 -0.28815)
(-0.256285 0 -0.512144)
(0.829216 -1.66227e-21 -0.292623)
(0.484188 -2.00471e-21 -0.534442)
(1.60539 1.56819e-21 -0.286201)
(1.2646 3.73688e-22 -0.534572)
(2.3757 4.23564e-22 -0.271647)
(2.05167 1.35244e-21 -0.517466)
(3.12012 -2.05508e-22 -0.251538)
(2.82211 -1.12495e-21 -0.48778)
(3.82372 6.44671e-22 -0.228199)
(3.55818 1.05105e-21 -0.449735)
(4.47635 0 -0.203288)
(4.24799 -1.80134e-22 -0.406988)
(5.07093 -5.08521e-23 -0.17808)
(4.88433 1.72205e-22 -0.361792)
(5.60556 -5.21057e-23 -0.153878)
(5.46198 -1.03004e-22 -0.317459)
(6.08117 1.11099e-23 -0.131491)
(5.97782 3.3826e-23 -0.275631)
(6.49985 1.13816e-23 -0.111189)
(6.43275 4.09014e-23 -0.236832)
(6.86457 0 -0.0930657)
(6.83098 -1.76275e-23 -0.201392)
(7.17925 3.70084e-25 -0.0771587)
(7.17727 0 -0.169625)
(7.44834 1.61568e-24 -0.0633966)
(7.47579 -3.28785e-24 -0.141605)
(7.67635 7.65062e-25 -0.0516229)
(7.73056 1.22805e-24 -0.117146)
(7.86782 0 -0.0420588)
(7.94565 4.69062e-26 -0.096048)
(8.16134 5.71565e-25 -0.0794173)
(-0.354425 -2.39382e-18 0.539916)
(-0.172008 -1.13784e-17 0.713114)
(-0.775202 0 0.557554)
(-0.571726 4.18161e-18 0.755676)
(-1.20283 -4.6418e-19 0.541455)
(-1.02175 -4.93225e-19 0.75218)
(-1.61323 1.09297e-18 0.49293)
(-1.46306 -2.29866e-18 0.706703)
(-1.97462 8.38107e-19 0.411554)
(-1.87023 4.01691e-18 0.616037)
(-2.26107 -1.26708e-18 0.299446)