/*--------------------------------*- C++ -*----------------------------------*\
| =========                 |                                                 |
| \\      /  F ield         | OpenFOAM: The Open Source CFD Toolbox           |
|  \\    /   O peration     | Version:  2012                                  |
|   \\  /    A nd           | Website:  www.openfoam.com                      |
|    \\/     M anipulation  |                                                 |
\*---------------------------------------------------------------------------*/
FoamFile
{
    version     2.0;
    format      ascii;
    class       surfaceScalarField;
    location    "0.2";
    object      meshPhi;
}
// * * * * * * * * * * * * * * * * * * * * * * * * * * * * * * * * * * * * * //

dimensions      [0 3 -1 0 0 0 0];
oriented        oriented;


internalField   nonuniform List<scalar> 
5457
(
3.35099e-07
5.61202e-09
7.8099e-07
1.84024e-08
1.50184e-06
3.73029e-08
2.71277e-06
6.85249e-08
4.71299e-06
1.20377e-07
7.92197e-06
2.0444e-07
1.29101e-05
3.36684e-07
2.04227e-05
5.38407e-07
3.13907e-05
8.36868e-07
4.69202e-05
1.2654e-06
6.82515e-05
1.8627e-06
9.66766e-05
2.67094e-06
0.000133406
3.73244e-06
0.000179381
5.08493e-06
0.000235034
6.75588e-06
0.000300011
8.75757e-06
0.000372894
1.1086e-05
0.000450972
1.37279e-05
0.000530118
1.66817e-05
0.000604858
1.99947e-05
0.000668663
2.38168e-05
0.000714503
2.84572e-05
0.000735593
3.4424e-05
0.000726254
4.24136e-05
0.00068276
5.32255e-05
0.000604214
6.75935e-05
0.000493995
8.59181e-05
0.000363359
0.000107739
0.000242021
0.000130237
0.000154361
3.148e-07
1.08447e-08
7.37707e-07
3.56245e-08
1.42555e-06
7.23723e-08
2.58613e-06
1.33204e-07
4.51142e-06
2.34403e-07
7.61297e-06
3.98724e-07
1.24534e-05
6.57603e-07
1.97717e-05
1.05301e-06
3.04968e-05
1.63874e-06
4.57402e-05
2.48062e-06
6.676e-05
3.65514e-06
9.48838e-05
5.2457e-06
0.000131382
7.33602e-06
0.000177288
1.00004e-05
0.000233159
1.32918e-05
0.000298808
1.72315e-05
0.00037302
2.18041e-05
0.000453314
2.697e-05
0.000535826
3.27023e-05
0.000615356
3.90585e-05
0.000685669
4.62843e-05
0.00074005
5.49271e-05
0.000772086
6.59129e-05
0.000776588
8.05152e-05
0.00075053
0.000100143
0.000694068
0.000125893
0.000612109
0.000157813
0.000517629
0.00019376
0.000438243
0.000227788
0.000251301
2.99078e-07
1.5732e-08
7.04242e-07
5.17589e-08
1.36662e-06
1.05336e-07
2.48872e-06
1.94149e-07
4.35745e-06
3.42047e-07
7.37948e-06
5.82415e-07
1.21138e-05
9.61393e-07
1.92992e-05
1.54059e-06
2.98709e-05
2.39892e-06
4.49582e-05
3.63291e-06
6.58547e-05
5.35455e-06
9.39498e-05
7.6857e-06
0.000130612
1.07481e-05
0.00017702
1.46484e-05
0.000233934
1.94601e-05
0.000301436
2.52056e-05
0.000378654
3.18466e-05
0.000463522
3.92968e-05
0.000552661
4.74701e-05
0.000641413
5.63803e-05
0.000724128
6.62884e-05
0.000794697
7.78711e-05
0.000847323
9.23404e-05
0.00087744
0.000111405
0.000882667
0.000136942
0.000863768
0.000170277
0.00082586
0.000210988
0.000780267
0.000255222
0.00074669
0.000293998
0.000316869
2.90854e-07
2.03557e-08
6.86632e-07
6.70369e-08
1.33571e-06
1.36564e-07
2.43832e-06
2.51866e-07
4.27963e-06
4.43911e-07
7.26569e-06
7.56053e-07
1.19574e-05
1.24816e-06
1.91004e-05
2.00006e-06
2.96452e-05
3.11378e-06
4.47508e-05
4.7138e-06
6.57618e-05
6.94401e-06
9.41504e-05
9.96011e-06
0.000131412
1.39161e-05
0.000178909
1.89446e-05
0.000237663
2.51314e-05
0.000308102
3.249e-05
0.0003898
4.0945e-05
0.000481252
5.03409e-05
0.000579741
6.04959e-05
0.000681368
7.13181e-05
0.000781302
8.29882e-05
0.000874249
9.61773e-05
0.00095513
0.000112219
0.00101987
0.0001331
0.00106615
0.000161084
0.00109404
0.000197813
0.00110649
0.000242802
0.00110971
0.000291394
0.00111347
0.000333028
0.00035827
2.8369e-07
2.46981e-08
6.71101e-07
8.13824e-08
1.30851e-06
1.65859e-07
2.39442e-06
3.05924e-07
4.21303e-06
5.39124e-07
7.171e-06
9.17972e-07
1.18331e-05
1.51485e-06
1.89548e-05
2.42601e-06
2.9507e-05
3.77413e-06
4.46856e-05
5.70817e-06
6.58974e-05
8.39939e-06
9.47136e-05
1.20316e-05
0.00013278
1.67843e-05
0.000181679
2.28079e-05
0.000242734
3.01915e-05
0.000316785
3.89293e-05
0.000403932
4.88953e-05
0.000503328
5.98444e-05
0.00061304
7.14631e-05
0.000730068
8.34925e-05
0.000850535
9.59311e-05
0.000970075
0.000109293
0.00108434
0.000124841
0.00118956
0.000144644
0.00128289
0.000171253
0.00136256
0.000206759
0.00142769
0.000251091
0.00147822
0.000299621
0.00151534
0.000341122
0.000365867
2.77439e-07
2.87476e-08
6.57452e-07
9.47447e-08
1.28463e-06
1.93084e-07
2.35617e-06
3.56009e-07
4.15585e-06
6.27032e-07
7.09171e-06
1.06689e-06
1.17336e-05
1.75909e-06
1.88488e-05
2.8143e-06
2.94312e-05
4.37293e-06
4.47177e-05
6.60455e-06
6.61836e-05
9.70267e-06
9.55083e-05
1.38729e-05
0.000134501
1.93128e-05
0.000184978
2.61822e-05
0.000248592
3.4565e-05
0.00032662
4.44274e-05
0.000419727
5.55823e-05
0.000527763
6.76799e-05
0.00064963
8.02485e-05
0.000783267
9.28102e-05
0.000925801
0.000105089
0.00107381
0.00011729
0.00122365
0.000130392
0.00137169
0.000146306
0.00151421
0.000167676
0.00164687
0.00019706
0.00176395
0.000235208
0.00185814
0.000278387
0.00192245
0.000315839
0.000338129
2.71999e-07
3.25014e-08
6.45498e-07
1.07104e-07
1.26367e-06
2.1817e-07
2.32269e-06
4.01939e-07
4.10615e-06
7.07226e-07
7.02386e-06
1.20199e-06
1.16511e-05
1.97933e-06
1.87675e-05
3.16214e-06
2.93905e-05
4.9055e-06
4.47989e-05
7.39547e-06
6.65373e-05
1.08425e-05
9.63939e-05
1.54676e-05
0.000136342
2.1479e-05
0.000188433
2.90385e-05
0.000254648
3.82177e-05
0.000336696
4.89489e-05
0.000435799
6.09794e-05
0.000552487
7.38491e-05
0.000686464
8.69144e-05
0.000836572
9.94459e-05
0.00100087
0.000110821
0.00117682
0.000120808
0.0013614
0.000129895
0.00155104
0.000139558
0.00174111
0.000152257
0.00192465
0.000170884
0.00209093
0.000197288
0.00222505
0.000229597
0.00231172
0.000259088
0.0002773
2.67298e-07
3.5967e-08
6.35086e-07
1.18477e-07
1.24529e-06
2.41121e-07
2.29313e-06
4.43674e-07
4.06209e-06
7.79556e-07
6.96355e-06
1.32289e-06
1.15779e-05
2.17482e-06
1.86962e-05
3.46818e-06
2.93581e-05
5.36962e-06
4.48814e-05
8.07756e-06
6.68759e-05
1.18143e-05
9.72321e-05
1.681e-05
0.000138077
2.32771e-05
0.000191683
3.13732e-05
0.000260333
4.11532e-05
0.000346138
5.25136e-05
0.000450825
6.51386e-05
0.000575538
7.84625e-05
0.000720687
9.16733e-05
0.000885886
0.000103781
0.00106999
0.000113779
0.00127115
0.000120903
0.00148685
0.000124981
0.00171359
0.000126786
0.00194602
0.000128264
0.00217521
0.000132365
0.0023865
0.00014207
0.00255864
0.000158082
0.0026685
0.000175294
0.000187864
2.63301e-07
3.91632e-08
6.26116e-07
1.28916e-07
1.2292e-06
2.62022e-07
2.26682e-06
4.81322e-07
4.02209e-06
8.44144e-07
6.90742e-06
1.42971e-06
1.15072e-05
2.34563e-06
1.86217e-05
3.73247e-06
2.93094e-05
5.76539e-06
4.49217e-05
8.65125e-06
6.71245e-05
1.26193e-05
9.78973e-05
1.79038e-05
0.0001395
2.47158e-05
0.000194399
3.32045e-05
0.000265138
4.34061e-05
0.000354172
5.51845e-05
0.000463654
6.81694e-05
0.000595233
8.17057e-05
0.000749883
9.48326e-05
0.000927805
0.000106316
0.00112841
0.000114762
0.00135032
0.000118831
0.00159131
0.000117567
0.00184788
0.000110822
0.0021143
9.97026e-05
0.00238059
8.68526e-05
0.00262992
7.61785e-05
0.00283682
7.12639e-05
0.00297116
7.1847e-05
7.46453e-05
2.60009e-07
4.21207e-08
6.18569e-07
1.38515e-07
1.21528e-06
2.81039e-07
2.24334e-06
5.15146e-07
3.98505e-06
9.01384e-07
6.85294e-06
1.52304e-06
1.14336e-05
2.49265e-06
1.85335e-05
3.95638e-06
2.92248e-05
6.09507e-06
4.48841e-05
9.1204e-06
6.7221e-05
1.32645e-05
9.82851e-05
1.87609e-05
0.000140443
2.58155e-05
0.000196314
3.45667e-05
0.000268652
4.50331e-05
0.00036018
5.70524e-05
0.000473383
7.0215e-05
0.000610285
8.38009e-05
0.000772255
9.67347e-05
0.000959869
0.000107578
0.00117284
0.000114581
0.00140995
0.000115832
0.00166897
0.000109536
0.00194626
9.44722e-05
0.00223582
7.06367e-05
0.00252745
4.00116e-05
0.00280374
7.12645e-06
0.00303695
-2.14722e-05
0.00319083
-4.0316e-05
-4.85505e-05
2.57467e-07
4.48828e-08
6.12522e-07
1.47408e-07
1.20361e-06
2.98421e-07
2.22264e-06
5.45558e-07
3.95054e-06
9.51937e-07
6.79874e-06
1.60391e-06
1.13537e-05
2.61753e-06
1.84246e-05
4.14253e-06
2.90902e-05
6.36282e-06
4.47428e-05
9.49177e-06
6.71203e-05
1.37607e-05
9.832e-05
1.93991e-05
0.000140783
2.6605e-05
0.000197236
3.55049e-05
0.000270582
4.61034e-05
0.000363736
5.82214e-05
0.000479407
7.14284e-05
0.000619862
8.49699e-05
0.000786701
9.77007e-05
0.000980666
0.000108034
0.00120151
0.00011393
0.0014479
0.000112955
0.00171725
0.000102485
0.00200546
8.01487e-05
0.0023062
4.46264e-05
0.00260938
-3.0939e-06
0.00289826
-5.81671e-05
0.003145
-0.000110935
0.00330913
-0.000149129
-0.000168389
2.55774e-07
4.75056e-08
6.08175e-07
1.55773e-07
1.19449e-06
3.14502e-07
2.2051e-06
5.73122e-07
3.9189e-06
9.96719e-07
6.74488e-06
1.6738e-06
1.12669e-05
2.72257e-06
1.8292e-05
4.29456e-06
2.88992e-05
6.57442e-06
4.44847e-05
9.77445e-06
6.67977e-05
1.41223e-05
9.79585e-05
1.98406e-05
0.000140448
2.71179e-05
0.000197053
3.60697e-05
0.000270765
4.66904e-05
0.000364607
5.87951e-05
0.000481415
7.19517e-05
0.000623579
8.54043e-05
0.000792784
9.7987e-05
0.000989769
0.000108036
0.00121413
0.000113307
0.00146413
0.000110946
0.00173657
9.75833e-05
0.00202649
6.97014e-05
0.0023268
2.45118e-05
0.00262738
-3.83964e-05
0.00291293
-0.000114464
0.00315839
-0.000191218
0.00332419
-0.000248638
-0.000272345
2.55083e-07
5.00581e-08
6.05857e-07
1.63825e-07
1.18847e-06
3.29693e-07
2.19157e-06
5.98545e-07
3.89137e-06
1.03689e-06
6.69298e-06
1.73456e-06
1.1175e-05
2.81073e-06
1.81379e-05
4.41708e-06
2.86531e-05
6.737e-06
4.41092e-05
9.97939e-06
6.62494e-05
1.43658e-05
9.71917e-05
2.01103e-05
0.000139421
2.73907e-05
0.000195739
3.63129e-05
0.000269162
4.68657e-05
0.000362749
5.88681e-05
0.000479374
7.1905e-05
0.00062145
8.52491e-05
0.000790636
9.77635e-05
0.000987552
0.000107781
0.00121151
0.000112967
0.00146025
0.000110193
0.00172971
9.55153e-05
0.00201375
6.4417e-05
0.00230392
1.26174e-05
0.00258908
-6.21354e-05
0.00285457
-0.000156753
0.00307935
-0.000257836
0.00323158
-0.000338661
-0.000376363
2.55611e-07
5.26222e-08
6.06044e-07
1.71824e-07
1.1864e-06
3.4449e-07
2.18344e-06
6.22672e-07
3.87012e-06
1.07384e-06
6.64633e-06
1.78841e-06
1.10829e-05
2.88548e-06
1.79691e-05
4.51547e-06
2.83615e-05
6.85876e-06
4.36296e-05
1.01189e-05
6.54935e-05
1.45095e-05
9.60441e-05
2.02344e-05
0.000137737
2.74606e-05
0.000193344
3.62851e-05
0.000265851
4.66954e-05
0.000358285
5.85221e-05
0.000473485
7.13814e-05
0.000613808
8.45994e-05
0.000780819
9.71105e-05
0.000974959
0.000107318
0.00119522
0.000112917
0.00143882
0.000110698
0.00170083
9.64258e-05
0.00197382
6.4945e-05
0.00224755
1.08268e-05
0.00250866
-7.00009e-05
0.00274033
-0.000176905
0.00292115
-0.000298499
0.00302602
-0.000405331
-0.000469463
2.57654e-07
5.53178e-08
6.09381e-07
1.80144e-07
1.18943e-06
3.5959e-07
2.18262e-06
6.46677e-07
3.85818e-06
1.10945e-06
6.6096e-06
1.83828e-06
1.09975e-05
2.95125e-06
1.77959e-05
4.5963e-06
2.80395e-05
6.94921e-06
4.30677e-05
1.02065e-05
6.45611e-05
1.45722e-05
9.45609e-05
2.02387e-05
0.000135462
2.73615e-05
0.000189964
3.60297e-05
0.000260972
4.62318e-05
0.000351425
5.78151e-05
0.000464061
7.04359e-05
0.000601125
8.34907e-05
0.000764041
9.60174e-05
0.000953064
0.000106552
0.00116691
0.000112937
0.00140238
0.000112097
0.00165391
9.98726e-05
0.0019131
7.10627e-05
0.00216827
1.9971e-05
0.002404
-5.81493e-05
0.00260074
-0.000164014
0.00273475
-0.000288627
0.00278351
-0.000402524
-0.000491976
0.000245613
-0.000140178
0.000391464
-0.000117329
0.000543366
-0.000101092
0.000667479
-8.5562e-05
0.000752067
-7.13729e-05
0.00079421
-5.7688e-05
0.000796764
-4.44729e-05
0.000765959
-3.22592e-05
0.000709548
-2.16676e-05
0.000635636
-1.31075e-05
0.000551947
-6.68434e-06
0.000465308
-2.24206e-06
0.000381278
5.40299e-07
0.000303935
2.05e-06
0.000235856
2.66548e-06
0.000178252
2.71107e-06
0.000131231
2.43793e-06
9.41102e-05
2.02354e-06
6.57228e-05
1.5817e-06
4.46736e-05
1.1769e-06
2.95353e-05
8.38828e-07
1.89767e-05
5.74861e-07
1.18382e-05
3.79661e-07
7.16283e-06
2.4196e-07
4.19818e-06
1.48888e-07
2.37812e-06
8.84272e-08
1.29354e-06
5.05457e-08
6.58283e-07
2.74588e-08
2.74201e-07
1.33781e-08
4.01029e-09
0.000443974
-0.000208362
0.000553242
-0.000194837
0.000670394
-0.000176237
0.000765866
-0.000154746
0.000827119
-0.000131746
0.000850306
-0.00010748
0.00083763
-8.3096e-05
0.000794807
-6.02053e-05
0.000729126
-4.02432e-05
0.000648257
-2.40856e-05
0.000559516
-1.19689e-05
0.000469356
-3.61014e-06
0.000382995
1.59562e-06
0.000304215
4.38323e-06
0.000235337
5.47304e-06
0.000177366
5.48369e-06
0.00013025
4.89501e-06
9.31902e-05
4.0463e-06
6.49382e-05
3.15501e-06
4.40481e-05
2.34394e-06
2.90626e-05
1.66897e-06
1.86357e-05
1.14302e-06
1.16024e-05
7.54568e-07
7.00625e-06
4.80751e-07
4.09833e-06
2.9577e-07
2.31715e-06
1.75646e-07
1.25831e-06
1.00404e-07
6.39881e-07
5.45623e-08
2.67036e-07
2.66133e-08
7.99063e-09
0.000758192
-0.000244291
0.00082925
-0.000238082
0.000899532
-0.000223987
0.000949871
-0.000202725
0.000971204
-0.000175649
0.000960583
-0.000144421
0.000920137
-0.000111807
0.000855093
-8.07207e-05
0.000772075
-5.3463e-05
0.000678019
-3.13733e-05
0.000579512
-1.48301e-05
0.00048232
-3.46505e-06
0.000391053
3.54671e-06
0.000308966
7.21686e-06
0.000237948
8.54228e-06
0.000178656
8.38265e-06
0.000130772
7.40694e-06
9.33003e-05
6.08927e-06
6.48545e-05
4.73363e-06
4.38951e-05
3.51104e-06
2.89049e-05
2.49809e-06
1.85017e-05
1.71049e-06
1.15004e-05
1.12935e-06
6.93439e-06
7.19823e-07
4.05082e-06
4.43115e-07
2.28755e-06
2.63345e-07
1.24111e-06
1.50673e-07
6.31008e-07
8.19789e-08
2.63691e-07
4.00583e-08
1.20503e-08
0.00113514
-0.000264975
0.00117401
-0.000260566
0.00119628
-0.000250154
0.00119453
-0.000230387
0.00116654
-0.000201559
0.0011125
-0.000166185
0.00103557
-0.000128305
0.000940907
-9.18702e-05
0.000834511
-5.98442e-05
0.000722473
-3.39087e-05
0.000610469
-1.45487e-05
0.000503388
-1.34384e-06
0.000405051
6.6775e-06
0.000318037
1.07172e-05
0.000243673
1.19667e-05
0.000182171
1.14589e-05
0.000132868
1.00012e-05
9.4513e-05
8.16777e-06
6.55342e-05
6.32682e-06
4.42639e-05
4.68448e-06
2.90984e-05
3.33083e-06
1.86001e-05
2.28088e-06
1.15489e-05
1.50683e-06
6.95775e-06
9.61326e-07
4.06197e-06
5.92496e-07
2.29295e-06
3.52625e-07
1.24386e-06
2.02082e-07
6.32522e-07
1.10153e-07
2.6444e-07
5.39421e-08
1.62571e-08
0.0015504
-0.00026762
0.00155518
-0.000268016
0.00152849
-0.000259938
0.0014721
-0.000240694
0.00139075
-0.000210483
0.00128864
-0.000172659
0.00117062
-0.000132007
0.00104216
-9.29664e-05
0.000908813
-5.87652e-05
0.000775846
-3.1196e-05
0.000647986
-1.07615e-05
0.00052918
3.00109e-06
0.000422379
1.11453e-05
0.000329406
1.49767e-05
0.000250951
1.57953e-05
0.000186714
1.47347e-05
0.000135632
1.26852e-05
9.61516e-05
1.02818e-05
6.64806e-05
7.93169e-06
4.47967e-05
5.86082e-06
2.93912e-05
4.1643e-06
1.87575e-05
2.85211e-06
1.16321e-05
1.88568e-06
7.00117e-06
1.20449e-06
4.0845e-06
7.43517e-07
2.30465e-06
4.4331e-07
1.24998e-06
2.54571e-07
6.35688e-07
1.39076e-07
2.65831e-07
6.82672e-08
2.06124e-08
0.00197343
-0.000266434
0.00194333
-0.000268232
0.00186811
-0.000259003
0.00175762
-0.00023738
0.00162311
-0.000204741
0.00147263
-0.000165239
0.00131286
-0.000123739
0.0011497
-8.44914e-05
0.0009884
-5.04984e-05
0.000833499
-2.33821e-05
0.000688856
-3.54401e-06
0.000557517
9.53143e-06
0.000441586
1.69286e-05
0.000342124
1.99797e-05
0.000259175
2.00142e-05
0.000191906
1.81968e-05
0.000138831
1.54464e-05
9.8076e-05
1.24205e-05
6.76115e-05
9.53948e-06
4.54468e-05
7.03348e-06
2.97575e-05
4.99385e-06
1.89604e-05
3.42111e-06
1.17429e-05
2.264e-06
7.06112e-06
1.44823e-06
4.11678e-06
8.95622e-07
2.32199e-06
5.35146e-07
1.25923e-06
3.08043e-07
6.40466e-07
1.68721e-07
2.6789e-07
8.30319e-08
2.51174e-08
0.0023774
-0.000270045
0.00231318
-0.000266834
0.00219118
-0.000251241
0.00202941
-0.000223554
0.00184516
-0.000187018
0.0016496
-0.000146209
0.00145075
-0.000105349
0.00125487
-6.78581e-05
0.00106692
-3.6067e-05
0.000890875
-1.11725e-05
0.000729873
6.63715e-06
0.00058619
1.79482e-05
0.000461176
2.38393e-05
0.000355202
2.56085e-05
0.000267703
2.45487e-05
0.000197338
2.17967e-05
0.000142212
1.82528e-05
0.000100133
1.45622e-05
6.8837e-05
1.11355e-05
4.61626e-05
8.19265e-06
3.01685e-05
5.81307e-06
1.91931e-05
3.98386e-06
1.18733e-05
2.63939e-06
7.13369e-06
1.69121e-06
4.15699e-06
1.0481e-06
2.34418e-06
6.278e-07
1.27134e-06
3.62365e-07
6.46789e-07
1.99048e-07
2.7062e-07
9.82305e-08
2.97728e-08
0.00274204
-0.000272322
0.00264377
-0.000260535
0.0024776
-0.000235927
0.00226954
-0.000200471
0.00204173
-0.000159661
0.00180721
-0.000118218
0.00157462
-7.92979e-05
0.00135025
-4.51019e-05
0.00113883
-1.70246e-05
0.000943921
4.31777e-06
0.000768132
1.90201e-05
0.000613157
2.77504e-05
0.000479746
3.15575e-05
0.000367693
3.16624e-05
0.000275912
2.9274e-05
0.000202611
2.54566e-05
0.000145524
2.10555e-05
0.000102171
1.66759e-05
7.0066e-05
1.27e-05
4.68916e-05
9.32569e-06
3.05949e-05
6.61405e-06
1.94399e-05
4.53552e-06
1.20151e-05
3.00901e-06
7.2149e-06
1.93184e-06
4.20333e-06
1.20014e-06
2.37047e-06
7.20884e-07
1.28603e-06
4.17381e-07
6.54599e-07
2.3001e-07
2.74024e-07
1.13856e-07
3.45798e-08
0.00304315
-0.000258668
0.00291398
-0.000241377
0.0027098
-0.000209765
0.00246373
-0.000168267
0.0022013
-0.000124712
0.00193626
-8.40253e-05
0.00167718
-4.83192e-05
0.00143018
-1.85666e-05
0.0011998
4.79546e-06
0.000989374
2.17466e-05
0.000801228
3.26712e-05
0.000636685
3.83145e-05
0.000496076
3.96796e-05
0.000378763
3.78862e-05
0.000283245
3.40312e-05
0.00020736
2.90783e-05
0.000148537
2.37936e-05
0.000104046
1.87238e-05
7.12136e-05
1.42094e-05
4.75845e-05
1.0418e-05
3.10092e-05
7.38783e-06
1.96861e-05
5.07073e-06
1.21609e-05
3.36975e-06
7.30113e-06
2.1684e-06
4.25419e-06
1.35085e-06
2.40026e-06
8.13994e-07
1.30313e-06
4.72933e-07
6.63882e-07
2.61564e-07
2.78121e-07
1.29907e-07
3.95413e-08
0.00325293
-0.00022329
0.00310342
-0.000205578
0.00287337
-0.000171478
0.00260176
-0.000127875
0.00231633
-8.44796e-05
0.00203093
-4.64659e-05
0.00175381
-1.51762e-05
0.00149094
9.37686e-06
0.00124685
2.75233e-05
0.0010249
3.97285e-05
0.000827376
4.6613e-05
0.000655445
4.89781e-05
0.000509206
4.7771e-05
0.000387735
4.40023e-05
0.000289238
3.86458e-05
0.000211282
3.25535e-05
0.000151055
2.64003e-05
0.000105637
2.06649e-05
7.22066e-05
1.56384e-05
4.8199e-05
1.14541e-05
3.13878e-05
8.12506e-06
1.99191e-05
5.58395e-06
1.23045e-05
3.71846e-06
7.38952e-06
2.39919e-06
4.30842e-06
1.49937e-06
2.43317e-06
9.06747e-07
1.32261e-06
5.28884e-07
6.74694e-07
2.93682e-07
2.82962e-07
1.46393e-07
4.46644e-08
0.00335715
-0.000172367
0.00320052
-0.000156758
0.00296035
-0.000123597
0.00267857
-8.1878e-05
0.0023835
-4.18003e-05
0.00208875
-8.38318e-06
0.00180244
1.75526e-05
0.00153068
3.65706e-05
0.00127835
4.94636e-05
0.00104911
5.6998e-05
0.000845435
5.99417e-05
0.000668541
5.91191e-05
0.000518457
5.54174e-05
0.000394117
4.97416e-05
0.000293551
4.29473e-05
0.000214143
3.57755e-05
0.000152928
2.88098e-05
0.00010685
2.24584e-05
7.29884e-05
1.69623e-05
4.87025e-05
1.24191e-05
3.1713e-05
8.81677e-06
2.01299e-05
6.06995e-06
1.24415e-05
4.0522e-06
7.47834e-06
2.62266e-06
4.36551e-06
1.64498e-06
2.46921e-06
9.98845e-07
1.34461e-06
5.85153e-07
6.872e-07
3.26376e-07
2.8864e-07
1.63342e-07
4.99627e-08
0.00335805
-0.00011552
0.00320428
-9.85722e-05
0.00297022
-6.96925e-05
0.0026947
-3.37398e-05
0.00240369
1.87659e-07
0.00211036
2.753e-05
0.00182325
4.76466e-05
0.00154923
6.12424e-05
0.00129388
6.92457e-05
0.00106148
7.25291e-05
0.000854873
7.19138e-05
0.000675499
6.82166e-05
0.000523445
6.22648e-05
0.000397616
5.48707e-05
0.000295967
4.6785e-05
0.000215798
3.86493e-05
0.000154058
3.09627e-05
0.000107624
2.40682e-05
7.35227e-05
1.8159e-05
4.90747e-05
1.32995e-05
3.19742e-05
9.45516e-06
2.03137e-05
6.52431e-06
1.25701e-05
4.36858e-06
7.5673e-06
2.83762e-06
4.42577e-06
1.78715e-06
2.50885e-06
1.09013e-06
1.36958e-06
6.4175e-07
7.01698e-07
3.59708e-07
2.95311e-07
1.80814e-07
5.54598e-08
0.00325284
-4.11017e-05
0.0031171
-3.28497e-05
0.00290843
-1.42582e-05
0.00265586
1.209e-05
0.00238152
3.80382e-05
0.00209899
5.87997e-05
0.00181828
7.33338e-05
0.0015477
8.20935e-05
0.00129397
8.59001e-05
0.00106217
8.55971e-05
0.000855681
8.19958e-05
0.000676231
7.58876e-05
0.000524058
6.80466e-05
0.000398128
5.92094e-05
0.000296406
5.00408e-05
0.000216185
4.10994e-05
0.000154404
3.2812e-05
0.000107934
2.54652e-05
7.3796e-05
1.92109e-05
4.93093e-05
1.40853e-05
3.21694e-05
1.00344e-05
2.04705e-05
6.94384e-06
1.26916e-05
4.66601e-06
7.65781e-06
3.04339e-06
4.49049e-06
1.92571e-06
2.55312e-06
1.18066e-06
1.39824e-06
6.98814e-07
7.1865e-07
3.93822e-07
3.032e-07
1.98911e-07
6.11926e-08
0.00303965
3.47954e-05
0.00295247
2.50817e-05
0.00279043
3.16247e-05
0.00257409
4.89025e-05
0.00232521
6.79909e-05
0.00205992
8.33386e-05
0.00179082
9.33989e-05
0.00152811
9.83482e-05
0.00127983
9.88819e-05
0.00105192
9.57954e-05
0.000848281
8.98798e-05
0.000670975
8.19022e-05
0.00052043
7.25964e-05
0.000395725
6.26417e-05
0.000294906
5.2637e-05
0.000215329
4.30753e-05
0.000153984
3.43261e-05
0.000107793
2.66304e-05
7.38181e-05
2.01072e-05
4.94145e-05
1.47702e-05
3.23055e-05
1.05513e-05
2.06062e-05
7.32711e-06
1.28104e-05
4.94402e-06
7.75319e-06
3.24001e-06
4.56208e-06
2.0609e-06
2.60367e-06
1.27075e-06
1.43167e-06
7.56649e-07
7.38709e-07
4.28958e-07
3.12614e-07
2.17787e-07
6.72152e-08
0.00279353
5.85348e-05
0.00276122
4.08141e-05
0.00264676
5.32639e-05
0.00246693
7.10762e-05
0.00224478
8.79783e-05
0.00199902
0.000100423
0.0017444
0.000107611
0.00149267
0.000109936
0.00125289
0.000108156
0.00103165
0.000103085
0.000833288
9.5519e-05
0.000660141
8.62134e-05
0.000512831
7.58733e-05
0.000390587
6.51365e-05
0.000291589
5.45527e-05
0.000213309
4.45651e-05
0.000152853
3.54996e-05
0.000107239
2.75628e-05
7.36163e-05
2.08492e-05
4.94102e-05
1.53569e-05
3.23969e-05
1.10089e-05
2.07311e-05
7.6771e-06
1.29339e-05
5.20526e-06
7.85876e-06
3.42967e-06
4.64419e-06
2.19448e-06
2.66294e-06
1.36173e-06
1.47143e-06
8.16208e-07
7.62795e-07
4.65752e-07
3.23983e-07
2.37809e-07
7.36488e-08
2.71148e-07
5.81086e-08
6.39273e-07
1.88671e-07
1.24301e-06
3.74772e-07
2.27212e-06
6.70163e-07
4.00166e-06
1.14305e-06
6.83212e-06
1.88312e-06
1.13324e-05
3.00651e-06
1.82855e-05
4.6574e-06
2.87356e-05
7.00555e-06
4.40309e-05
1.02388e-05
6.58586e-05
1.45502e-05
9.62627e-05
2.01192e-05
0.000137635
2.70897e-05
0.000192665
3.5543e-05
0.000264234
4.54699e-05
0.000355247
5.67372e-05
0.000468388
6.90467e-05
0.000605819
8.18757e-05
0.000768841
9.43884e-05
0.000957533
0.000105303
0.00117037
0.000112714
0.00140376
0.000113884
0.00165163
0.0001051
0.00190491
8.17569e-05
0.00215113
3.89403e-05
0.00237425
-2.72296e-05
0.00255486
-0.000116945
0.00267208
-0.000222112
0.00270968
-0.000317194
-0.000360147
0.00262485
2.82072e-07
6.07683e-08
6.62608e-07
1.96695e-07
1.28259e-06
3.88705e-07
2.33356e-06
6.90903e-07
4.09146e-06
1.17112e-06
6.95611e-06
1.9176e-06
1.14929e-05
3.04352e-06
1.84772e-05
4.68808e-06
2.89386e-05
7.01357e-06
4.42016e-05
1.01978e-05
6.59172e-05
1.44212e-05
9.60776e-05
1.98501e-05
0.000137004
2.66157e-05
0.000191293
3.47923e-05
0.000261714
4.43731e-05
0.000351039
5.52453e-05
0.000461804
6.7158e-05
0.000596005
7.96735e-05
0.000754762
9.2093e-05
0.000937977
0.000103348
0.00114397
0.000111852
0.00136901
0.000115346
0.00160687
0.000110809
0.00184865
9.46084e-05
0.00208235
6.31386e-05
0.00229333
1.41345e-05
0.00246561
-5.12894e-05
0.00258497
-0.000125728
0.002643
-0.000190508
-0.000211123
0.00264122
2.92948e-07
6.31265e-08
6.85445e-07
2.03684e-07
1.32017e-06
4.00392e-07
2.3894e-06
7.07254e-07
4.16804e-06
1.19112e-06
7.05209e-06
1.938e-06
1.15986e-05
3.05709e-06
1.85677e-05
4.68141e-06
2.89634e-05
6.96452e-06
4.40715e-05
1.00729e-05
6.5486e-05
1.41736e-05
9.51196e-05
1.94188e-05
0.000135188
2.59271e-05
0.000188153
3.37649e-05
0.000256621
4.29277e-05
0.000343175
5.3321e-05
0.000450163
6.47387e-05
0.000579368
7.68246e-05
0.000731676
8.90128e-05
0.000906802
0.000100448
0.00110301
0.000109881
0.00131657
0.000115562
0.0015414
0.000115211
0.0017691
0.000106205
0.00198883
8.61729e-05
0.00218781
5.41675e-05
0.00235323
1.21859e-05
0.00247489
-3.33597e-05
0.00254677
-6.91135e-05
-7.4643e-05
0.00256719
3.02986e-07
6.5054e-08
7.05984e-07
2.09236e-07
1.35244e-06
4.09097e-07
2.43389e-06
7.18038e-07
4.22193e-06
1.2013e-06
7.10511e-06
1.94184e-06
1.16266e-05
3.04393e-06
1.85231e-05
4.63329e-06
2.87623e-05
6.85363e-06
4.35751e-05
9.85905e-06
6.44782e-05
1.38026e-05
9.3279e-05
1.88215e-05
0.000132054
2.50216e-05
0.000183093
3.24609e-05
0.00024879
4.11352e-05
0.000331486
5.09637e-05
0.000433305
6.17781e-05
0.000555802
7.32969e-05
0.000699588
8.50724e-05
0.000864161
9.64371e-05
0.00104774
0.000106447
0.00124677
0.000113814
0.00145544
0.000116911
0.00166601
0.000113956
0.00186893
0.000103488
0.00205319
8.51927e-05
0.00220792
6.0967e-05
0.00232432
3.58157e-05
0.00239607
1.86976e-05
1.98141e-05
0.00242011
3.11459e-07
6.64245e-08
7.22591e-07
2.12962e-07
1.37641e-06
4.14125e-07
2.46201e-06
7.22167e-07
4.24503e-06
1.20007e-06
7.10261e-06
1.92698e-06
1.15583e-05
3.00129e-06
1.83172e-05
4.54046e-06
2.8299e-05
6.67738e-06
4.26655e-05
9.553e-06
6.28368e-05
1.33056e-05
9.04911e-05
1.80576e-05
0.000127539
2.39014e-05
0.000176063
3.08864e-05
0.000238213
3.90069e-05
0.000316044
4.81928e-05
0.000411402
5.83031e-05
0.000525599
6.91123e-05
0.000658989
8.02714e-05
0.000810872
9.12716e-05
0.000979372
0.000101414
0.00116106
0.000109778
0.00135062
0.000115244
0.00154102
0.000116638
0.00172379
0.000113064
0.00188946
0.00010445
0.00202845
9.22064e-05
0.00213246
7.97005e-05
0.00219494
7.228e-05
7.45756e-05
0.00221311
3.17697e-07
6.71443e-08
7.33772e-07
2.14579e-07
1.38943e-06
4.14984e-07
2.46938e-06
7.18919e-07
4.23052e-06
1.18649e-06
7.03446e-06
1.89227e-06
1.13793e-05
2.92799e-06
1.79305e-05
4.40201e-06
2.75495e-05
6.43562e-06
4.1315e-05
9.15602e-06
6.05342e-05
1.26864e-05
8.67363e-05
1.71342e-05
0.000121643
2.25785e-05
0.000167109
2.90594e-05
0.000225014
3.6569e-05
0.000297126
4.50448e-05
0.000384954
5.43652e-05
0.000489503
6.4341e-05
0.000610926
7.4697e-05
0.000748379
8.50483e-05
0.00089989
9.48804e-05
0.00106214
0.000103539
0.00123027
0.000110255
0.001398
0.000114253
0.00155782
0.000114971
0.00170146
0.000112381
0.00182051
0.000107358
0.00190734
0.000101879
0.00195575
9.88257e-05
0.000100183
0.0019643
3.21103e-07
6.71207e-08
7.38235e-07
2.13817e-07
1.38929e-06
4.11238e-07
2.45261e-06
7.0772e-07
4.17352e-06
1.15991e-06
6.89419e-06
1.83721e-06
1.10817e-05
2.824e-06
1.73551e-05
4.21892e-06
2.65079e-05
6.13116e-06
3.9525e-05
8.67389e-06
5.75873e-05
1.19552e-05
8.20607e-05
1.60676e-05
0.000114463
2.10773e-05
0.000156405
2.70147e-05
0.000209489
3.38682e-05
0.000275185
4.15794e-05
0.000354667
5.00402e-05
0.000448618
5.90888e-05
0.00055699
6.85007e-05
0.00067882
7.79765e-05
0.000812104
8.7131e-05
0.000953661
9.5492e-05
0.00109906
0.000102524
0.0012427
0.000107699
0.00137801
0.000110636
0.00149783
0.000111275
0.00159493
0.000110071
0.0016627
0.000108056
0.00169579
0.000106654
0.000106713
0.00169454
3.21124e-07
6.62832e-08
7.34842e-07
2.10481e-07
1.37418e-06
4.02604e-07
2.40915e-06
6.88273e-07
4.07087e-06
1.12019e-06
6.67849e-06
1.76204e-06
1.06636e-05
2.69041e-06
1.65925e-05
3.99383e-06
2.51845e-05
5.76919e-06
3.73222e-05
8.11568e-06
5.4052e-05
1.11266e-05
7.65683e-05
1.488e-05
0.000106178
1.94295e-05
0.000144243
2.47966e-05
0.000192085
3.0965e-05
0.000250876
3.78777e-05
0.000321482
4.54359e-05
0.000404304
5.34974e-05
0.000499087
6.1873e-05
0.000604767
7.03216e-05
0.000719362
7.85459e-05
0.00083989
8.61951e-05
0.000962351
9.28833e-05
0.00108182
9.8236e-05
0.00119265
0.000101969
0.00128878
0.000103987
0.00136423
0.000104475
0.00141357
0.00010391
0.00143261
0.000102955
0.000102007
0.00142333
3.17384e-07
6.46182e-08
7.22866e-07
2.0455e-07
1.34308e-06
3.89126e-07
2.33788e-06
6.60816e-07
3.92186e-06
1.06796e-06
6.38819e-06
1.66821e-06
1.01293e-05
2.53005e-06
1.56547e-05
3.73173e-06
2.36047e-05
5.35792e-06
3.47555e-05
7.49413e-06
5.00154e-05
1.02194e-05
7.04054e-05
1.35983e-05
9.70234e-05
1.76727e-05
0.000130986
2.24554e-05
0.000173349
2.79257e-05
0.000224997
3.40275e-05
0.000286523
4.06686e-05
0.000358083
4.77212e-05
0.000439253
5.50218e-05
0.000528911
6.23702e-05
0.000625148
6.95294e-05
0.000725234
7.62297e-05
0.000825632
8.21831e-05
0.000922107
8.71116e-05
0.00100992
9.07935e-05
0.00108412
9.31161e-05
0.00113992
9.41189e-05
0.00117317
9.39976e-05
0.00118078
9.30456e-05
9.15016e-05
0.001166
3.09717e-07
6.21431e-08
7.0206e-07
1.96105e-07
1.29588e-06
3.71031e-07
2.23927e-06
6.25898e-07
3.72843e-06
1.00441e-06
6.02836e-06
1.55794e-06
9.48984e-06
2.34678e-06
1.45633e-05
3.43904e-06
2.18079e-05
4.90746e-06
3.18929e-05
6.82446e-06
4.55895e-05
9.25572e-06
6.37502e-05
1.22532e-05
8.7272e-05
1.58482e-05
0.000117043
2.0046e-05
0.000153871
2.48224e-05
0.000198387
3.01218e-05
0.000250946
3.58582e-05
0.00031151
4.1916e-05
0.000379536
4.81517e-05
0.000453892
5.43958e-05
0.000532801
6.04546e-05
0.000613827
6.61153e-05
0.000693926
7.11568e-05
0.000769553
7.53677e-05
0.000836854
7.85729e-05
0.000891918
8.06628e-05
0.000931096
8.16154e-05
0.000951356
8.14986e-05
0.000950624
8.04441e-05
7.86374e-05
0.000932848
2.98138e-07
5.89137e-08
6.7259e-07
1.85342e-07
1.23322e-06
3.48769e-07
2.11512e-06
5.84421e-07
3.49475e-06
9.31195e-07
5.60757e-06
1.43416e-06
8.76161e-06
2.14554e-06
1.33476e-05
3.12357e-06
1.98443e-05
4.42965e-06
2.88166e-05
6.12392e-06
4.09046e-05
8.25978e-06
5.68019e-05
1.08778e-05
7.72207e-05
1.40002e-05
0.000102843
1.7626e-05
0.000134256
2.17284e-05
0.000171879
2.62536e-05
0.000215874
3.11218e-05
0.000266057
3.62288e-05
0.000321824
4.14489e-05
0.000382083
4.66372e-05
0.000445233
5.16339e-05
0.000509167
5.62688e-05
0.000571339
6.03696e-05
0.000628877
6.37745e-05
0.000678747
6.63475e-05
0.000717975
6.79952e-05
0.000743897
6.86793e-05
0.000754424
6.84192e-05
0.000748275
6.72812e-05
6.5431e-05
0.000729622
2.82864e-07
5.50217e-08
6.35074e-07
1.72571e-07
1.15658e-06
3.22981e-07
1.96859e-06
5.3759e-07
3.2271e-06
8.50456e-07
5.13761e-06
1.30045e-06
7.96554e-06
1.93202e-06
1.20433e-05
2.79405e-06
1.77722e-05
3.93737e-06
2.56186e-05
5.41091e-06
3.61011e-05
7.257e-06
4.97689e-05
9.50636e-06
6.71697e-05
1.21733e-05
8.88065e-05
1.52523e-05
0.000115084