/*--------------------------------*- C++ -*----------------------------------*\
| =========                 |                                                 |
| \\      /  F ield         | OpenFOAM: The Open Source CFD Toolbox           |
|  \\    /   O peration     | Version:  2012                                  |
|   \\  /    A nd           | Website:  www.openfoam.com                      |
|    \\/     M anipulation  |                                                 |
\*---------------------------------------------------------------------------*/
FoamFile
{
    version     2.0;
    format      ascii;
    class       surfaceScalarField;
    location    "0.2";
    object      phi;
}
// * * * * * * * * * * * * * * * * * * * * * * * * * * * * * * * * * * * * * //

dimensions      [0 3 -1 0 0 0 0];
oriented        oriented;


internalField   nonuniform List<scalar> 
5457
(
0.198463
0.0015363
0.196612
0.00185109
0.194445
0.00216598
0.191919
0.00252433
0.189044
0.00287311
0.185842
0.00319869
0.182334
0.00350274
0.178535
0.0037906
0.174454
0.00406928
0.17009
0.00434731
0.165433
0.00463382
0.160465
0.00493739
0.155159
0.00526524
0.149485
0.00562275
0.14341
0.00601328
0.136898
0.00643803
0.129918
0.00689604
0.122442
0.00738392
0.114451
0.00789567
0.105933
0.00842237
0.0968938
0.00895202
0.0873499
0.00946958
0.0773371
0.00995727
0.0669083
0.0103957
0.0561325
0.0107661
0.0450906
0.0110529
0.0338671
0.0112478
0.022539
0.011351
0.0111342
0.0113959
0.0111028
0.199962
0.00157354
0.199258
0.00255557
0.198082
0.00334091
0.196454
0.00415114
0.194365
0.00495968
0.191825
0.00573518
0.188854
0.00646943
0.185471
0.00716527
0.181697
0.00783201
0.177544
0.00848407
0.173016
0.00913883
0.168108
0.00981414
0.162807
0.0105261
0.157092
0.0112877
0.150934
0.012108
0.144306
0.0129921
0.137177
0.0139403
0.129519
0.0149481
0.121311
0.0160056
0.112538
0.0170971
0.103197
0.0182001
0.0932996
0.0192859
0.0828735
0.0203199
0.0719626
0.021264
0.0606273
0.0220805
0.0489392
0.0227392
0.0369716
0.0232255
0.0247832
0.0235478
0.0123882
0.0237728
0.023441
0.199814
0.00175969
0.199164
0.00320449
0.198053
0.00445181
0.196507
0.00569568
0.194523
0.00694168
0.192103
0.00815239
0.189258
0.00930845
0.186008
0.0104078
0.182368
0.0114605
0.178351
0.0124856
0.173959
0.0135078
0.169189
0.0145535
0.164028
0.0156473
0.158454
0.0168102
0.152442
0.0180575
0.145959
0.019399
0.138975
0.0208378
0.131455
0.02237
0.123373
0.0239841
0.114704
0.0256598
0.105435
0.027367
0.0955608
0.029066
0.0850942
0.0307075
0.0740623
0.0322348
0.0625109
0.0335899
0.0505041
0.0347205
0.0381238
0.0355907
0.0254709
0.0361847
0.0126677
0.0365434
0.0360684
0.199736
0.00202371
0.199084
0.00385615
0.197992
0.00554243
0.196473
0.0072139
0.194528
0.00888509
0.192159
0.0105176
0.189379
0.0120834
0.186204
0.0135752
0.18265
0.0150037
0.178727
0.0163925
0.174439
0.0177731
0.169781
0.0191805
0.164741
0.0206476
0.159296
0.0222032
0.153419
0.0238696
0.147079
0.0256618
0.140239
0.027587
0.132863
0.0296436
0.124915
0.0318204
0.116363
0.0340955
0.107179
0.0364343
0.0973444
0.0387891
0.0868531
0.0410979
0.0757151
0.0432864
0.0639628
0.0452717
0.0516588
0.046969
0.0389062
0.0482991
0.0258647
0.0491868
0.0127672
0.0495981
0.0488015
0.199699
0.00232395
0.199039
0.00451652
0.197967
0.00661347
0.196479
0.00870078
0.194577
0.0107852
0.192265
0.0128262
0.189555
0.014789
0.186461
0.0166616
0.182999
0.0184546
0.179179
0.0201959
0.175005
0.0219243
0.170472
0.0236826
0.165566
0.0255124
0.160266
0.0274505
0.154543
0.0295264
0.148363
0.0317616
0.141687
0.0341683
0.134473
0.036749
0.126677
0.0394956
0.118256
0.0423871
0.109169
0.045388
0.0993798
0.0484454
0.0888633
0.0514876
0.0776109
0.0544221
0.0656424
0.0571367
0.0530209
0.0595019
0.0398728
0.0613738
0.0264128
0.062588
0.0129627
0.063003
0.0617407
0.199684
0.00263948
0.199023
0.0051778
0.197975
0.00766069
0.196526
0.0101478
0.194678
0.0126321
0.192433
0.0150677
0.189804
0.0174134
0.186805
0.0196531
0.183451
0.0217973
0.179753
0.0238781
0.175713
0.025941
0.171328
0.0280369
0.166582
0.030216
0.161456
0.0325235
0.155917
0.0349966
0.149931
0.0376641
0.143455
0.0405448
0.136441
0.0436474
0.128837
0.0469691
0.120587
0.0504936
0.111636
0.0541879
0.101927
0.0579982
0.0914132
0.0618458
0.0800642
0.0656214
0.0678818
0.0691801
0.054923
0.0723378
0.0413288
0.0748668
0.0273561
0.0764877
0.0133911
0.0769289
0.0751294
0.199681
0.00295832
0.199027
0.00583114
0.198008
0.008679
0.196607
0.0115479
0.194821
0.0144167
0.192654
0.0172311
0.190119
0.0199439
0.18723
0.0225349
0.184001
0.0250147
0.180443
0.0274194
0.176561
0.0298009
0.172348
0.0322182
0.167792
0.0347301
0.16287
0.0373902
0.157552
0.0402442
0.151801
0.0433289
0.14557
0.0466713
0.138806
0.0502883
0.131449
0.0541855
0.123431
0.0583547
0.114679
0.06277
0.105116
0.067382
0.0946677
0.0721101
0.0832742
0.0768319
0.0709087
0.0813711
0.057606
0.0854831
0.0435019
0.0888425
0.0288748
0.0910295
0.0141551
0.0916187
0.0893095
0.199685
0.00327315
0.199047
0.00646892
0.198062
0.00966274
0.196715
0.0128944
0.195
0.0161299
0.192922
0.0193057
0.190493
0.0223679
0.187728
0.0252926
0.184641
0.0280904
0.181244
0.0308009
0.177539
0.0334825
0.173524
0.0362019
0.169185
0.0390264
0.164501
0.0420181
0.159442
0.0452317
0.153969
0.0487128
0.148033
0.052498
0.141578
0.0566143
0.134535
0.0610785
0.126825
0.0658947
0.118359
0.0710494
0.109035
0.0765044
0.0987489
0.0821855
0.0874007
0.0879662
0.0749176
0.0936458
0.0612871
0.0989229
0.0466065
0.103367
0.0311439
0.106392
0.0153549
0.107382
0.104706
0.199694
0.003579
0.199078
0.00708458
0.198134
0.0106058
0.196847
0.0141803
0.195212
0.0177633
0.193233
0.0212813
0.190923
0.0246736
0.188296
0.0279124
0.185367
0.0310084
0.182147
0.0340046
0.178641
0.0369651
0.174847
0.0399643
0.170753
0.0430775
0.166338
0.0463757
0.161575
0.0499222
0.156424
0.0537722
0.150836
0.0579728
0.144753
0.0625631
0.1381
0.0675737
0.130789
0.0730251
0.122715
0.0789222
0.113752
0.0852468
0.103762
0.0919428
0.0925923
0.0988948
0.0801041
0.105896
0.0662011
0.112605
0.0508922
0.118492
0.034381
0.122783
0.0171198
0.124612
0.121872
0.199706
0.00387238
0.199118
0.00767285
0.19822
0.0115027
0.197
0.0153994
0.195453
0.019309
0.193582
0.0231485
0.191401
0.0268499
0.188925
0.0303816
0.186168
0.0337542
0.183143
0.0370137
0.179855
0.0402296
0.176304
0.0434833
0.172481
0.0468579
0.168367
0.0504325
0.163936
0.0542794
0.159151
0.0584636
0.153965
0.063043
0.14832
0.0680698
0.142138
0.0735911
0.135328
0.0796469
0.12777
0.0862672
0.119319
0.0934634
0.109798
0.101213
0.0989966
0.109435
0.086684
0.117948
0.0726355
0.126409
0.0566973
0.134223
0.0389132
0.140426
0.019665
0.143818
0.141579
0.199721
0.00415068
0.199164
0.00822945
0.198318
0.0123485
0.19717
0.016546
0.195717
0.0207603
0.193964
0.0248989
0.191922
0.0288869
0.189608
0.0326889
0.187036
0.0363148
0.184221
0.0398132
0.181169
0.0432586
0.177882
0.0467387
0.174353
0.0503437
0.170567
0.0541605
0.166503
0.0582697
0.162126
0.0627454
0.157396
0.0676567
0.152255
0.0730694
0.14663
0.0790474
0.140429
0.0856538
0.133528
0.0929484
0.125766
0.100982
0.116933
0.109783
0.106759
0.119335
0.0949038
0.129529
0.0809637
0.140089
0.0645202
0.150443
0.0452867
0.159503
0.0233826
0.165667
0.165001
0.199739
0.00441181
0.199217
0.00875076
0.198426
0.0131386
0.197356
0.0176147
0.196004
0.0221106
0.194375
0.0265252
0.192481
0.0307762
0.190339
0.0348243
0.187964
0.0386787
0.185371
0.0423901
0.18257
0.0460372
0.179564
0.0497131
0.17635
0.0535144
0.172919
0.0575349
0.169252
0.0618625
0.165323
0.0665799
0.161096
0.0717661
0.156523
0.0774995
0.15154
0.0838611
0.14606
0.0909372
0.139964
0.0988201
0.133091
0.107607
0.125212
0.117394
0.116009
0.128259
0.105033
0.140225
0.0916682
0.153188
0.075112
0.16677
0.0544646
0.179985
0.0291027
0.190963
0.194125
0.199757
0.00465418
0.199274
0.00923393
0.198542
0.0138695
0.197555
0.0186013
0.196309
0.0233549
0.19481
0.0280209
0.193072
0.0325102
0.19111
0.0367793
0.188941
0.0408363
0.186582
0.0447333
0.184044
0.0485526
0.181335
0.0523918
0.178454
0.0563528
0.175397
0.0605349
0.172154
0.0650325
0.168705
0.0699347
0.165025
0.0753291
0.161078
0.0813047
0.156813
0.0879571
0.152161
0.0953933
0.14702
0.103737
0.141246
0.113133
0.134623
0.123751
0.126819
0.135784
0.117321
0.149445
0.105322
0.164925
0.0895662
0.182303
0.0681678
0.201225
0.0386732
0.220395
0.232812
0.199777
0.00487661
0.199334
0.00967676
0.198665
0.0145381
0.197763
0.0195021
0.196627
0.0244889
0.195264
0.0293811
0.193687
0.0340832
0.191912
0.0385474
0.189957
0.0427801
0.187841
0.0468344
0.185576
0.0507951
0.183174
0.0547635
0.18064
0.0588455
0.177974
0.0631447
0.175175
0.0677597
0.172233
0.0727847
0.169134
0.0783128
0.165859
0.0844404
0.162376
0.0912732
0.158643
0.0989334
0.154591
0.107568
0.150119
0.117361
0.14506
0.128546
0.139141
0.141431
0.131888
0.156426
0.12246
0.1741
0.109296
0.195256
0.0893744
0.221006
0.056595
0.253136
0.289437
0.199798
0.00507812
0.199397
0.0100774
0.198793
0.015142
0.197979
0.0203143
0.196958
0.0255091
0.195734
0.030602
0.194322
0.0354908
0.192739
0.0401235
0.191004
0.0445045
0.189136
0.0486873
0.187152
0.0527581
0.185064
0.0568207
0.182885
0.0609838
0.180622
0.0653537
0.17828
0.0700315
0.175861
0.0751137
0.173366
0.0806958
0.170794
0.086877
0.168138
0.093767
0.165389
0.101494
0.162528
0.110216
0.159518
0.120134
0.156292
0.131517
0.152721
0.144737
0.148549
0.160333
0.143251
0.17915
0.135659
0.202638
0.122788
0.233734
0.0948369
0.281036
0.384356
-0.00817267
0.00818292
-0.0168334
0.00863224
-0.0254956
0.00861138
-0.0335936
0.00805941
-0.0406742
0.00706737
-0.0461774
0.00551881
-0.0496607
0.00352517
-0.0506326
0.00103498
-0.0487883
-0.00176626
-0.0440087
-0.00469259
-0.0361024
-0.00781589
-0.0254291
-0.0105844
-0.0125282
-0.0128175
0.00196026
-0.0144131
0.0173323
-0.0153067
0.0329942
-0.015607
0.0484564
-0.0154176
0.0633347
-0.0148432
0.0773475
-0.013986
0.0903092
-0.0129418
0.102091
-0.0117676
0.112665
-0.0105636
0.122058
-0.0093862
0.13032
-0.0082576
0.137515
-0.00719246
0.143723
-0.00620606
0.149032
-0.00530783
0.153531
-0.0044984
0.157308
-0.00377723
-0.00319609
-0.00864771
0.0168367
-0.0176274
0.0175802
-0.0265286
0.0174706
-0.0349198
0.0164242
-0.0422042
0.0143509
-0.0478842
0.0112255
-0.0514316
0.00712381
-0.0523431
0.00201724
-0.0502657
-0.00375935
-0.0450899
-0.00977655
-0.0367001
-0.0161117
-0.0253737
-0.0218193
-0.011867
-0.0262389
0.00316306
-0.0293668
0.0190316
-0.0311091
0.0351459
-0.0316662
0.0510221
-0.0312491
0.066283
-0.0300691
0.0806543
-0.0283306
0.0939526
-0.0262204
0.106087
-0.0238878
0.117012
-0.0214791
0.126745
-0.0191125
0.135336
-0.0168444
0.142852
-0.0147056
0.149371
-0.0127232
0.154978
-0.0109133
0.159756
-0.00927631
0.163783
-0.00780372
-0.00650504
-0.00941886
0.0262443
-0.019104
0.0272375
-0.0286354
0.0269795
-0.0375738
0.0253603
-0.0453897
0.0221893
-0.0515142
0.0173976
-0.0553214
0.0110002
-0.0563121
0.00309346
-0.0540494
-0.00592581
-0.0482789
-0.0154457
-0.0390249
-0.0252644
-0.026973
-0.0337741
-0.0126763
-0.0404462
0.00304716
-0.045011
0.0194438
-0.0474378
0.0359391
-0.048105
0.0520679
-0.0473325
0.0674739
-0.0454397
0.0819059
-0.0427358
0.0952011
-0.0394958
0.107277
-0.0359496
0.118118
-0.0323098
0.12775
-0.0287382
0.136232
-0.0253223
0.14364
-0.022111
0.150059
-0.0191402
0.155576
-0.016429
0.160275
-0.0139749
0.164231
-0.01176
-0.00977211
-0.0106398
0.036872
-0.0213849
0.0379663
-0.031864
0.0374625
-0.0417245
0.0352502
-0.0504383
0.030957
-0.0572301
0.0242651
-0.0614368
0.0153003
-0.0624425
0.00420495
-0.0596601
-0.00859538
-0.0528996
-0.0220916
-0.0424627
-0.0355895
-0.0290639
-0.0470679
-0.0135539
-0.055861
0.00314762
-0.061629
0.0202635
-0.0644828
0.0372583
-0.0650414
0.0537019
-0.0637293
0.0692726
-0.0609741
0.0837519
-0.0571877
0.097006
-0.0527298
0.10898
-0.0479092
0.119682
-0.0430024
0.129157
-0.0382062
0.137474
-0.0336343
0.144718
-0.029353
0.150985
-0.0254048
0.156364
-0.0218077
0.160944
-0.0185534
0.164798
-0.0156143
-0.0129614
-0.012204
0.0490674
-0.0244721
0.050237
-0.0364109
0.0494377
-0.047605
0.046511
-0.0574228
0.0408651
-0.065145
0.0320959
-0.0697059
0.019983
-0.0703371
0.00496573
-0.0664693
-0.012331
-0.0580472
-0.0303834
-0.0457786
-0.047734
-0.0306776
-0.0620545
-0.0136923
-0.072744
0.00411146
-0.079344
0.0219976
-0.0822943
0.0394906
-0.0824734
0.0562122
-0.0804025
0.0718889
-0.0766134
0.0863442
-0.0716149
0.0994787
-0.0658438
0.111276
-0.0596917
0.121768
-0.0534847
0.131017
-0.0474483
0.139106
-0.0417187
0.146132
-0.0363771
0.152198
-0.031469
0.157399
-0.0270077
0.161823
-0.0229769
0.165548
-0.0193383
-0.0160486
-0.0141167
0.0631924
-0.0283384
0.064489
-0.0422021
0.0633758
-0.0551473
0.0595634
-0.0663383
0.0521848
-0.074717
0.0406176
-0.0792311
0.0246486
-0.0787754
0.00466467
-0.0729706
-0.0179828
-0.0621398
-0.0410671
-0.0475646
-0.0621718
-0.0304788
-0.0790154
-0.0119954
-0.0911173
0.00680342
-0.0980484
0.0253246
-0.100737
0.0431577
-0.100243
0.0599892
-0.0971837
0.0756043
-0.0921899
0.0898753
-0.0858571
0.102751
-0.0786982
0.114248
-0.0711739
0.124422
-0.0636489
0.133353
-0.0563723
0.141137
-0.0494987
0.147883
-0.0431194
0.153695
-0.0372795
0.158673
-0.0319849
0.162906
-0.0272095
0.166472
-0.0229034
-0.0190085
-0.0164997
0.0797205
-0.0329971
0.0810493
-0.0489452
0.0794381
-0.0636326
0.0743987
-0.0759996
0.0647184
-0.0846384
0.0494329
-0.0882062
0.0283969
-0.085609
0.00224671
-0.0769068
-0.0265115
-0.0631312
-0.0546788
-0.046038
-0.0791141
-0.0270026
-0.0979156
-0.00731342
-0.110688
0.0121294
-0.117391
0.0309573
-0.119482
0.0488143
-0.118033
0.0654553
-0.113772
0.0807307
-0.107425
0.0945699
-0.0996666
0.106975
-0.0910812
0.117993
-0.0821776
0.127702
-0.073347
0.136194
-0.0648577
0.143578
-0.0568779
0.149965
-0.0495037
0.155463
-0.0427761
0.160172
-0.0366923
0.164178
-0.0312146
0.167556
-0.0262813
-0.0218193
-0.0188894
0.0986564
-0.0376511
0.099903
-0.0555279
0.0974657
-0.0715617
0.0906175
-0.0843781
0.0777351
-0.0923528
0.0576142
-0.0938883
0.0301389
-0.0881018
-0.00333818
-0.0758178
-0.0386031
-0.0589675
-0.0713497
-0.0395526
-0.0983656
-0.0190123
-0.118311
0.00127982
-0.130855
0.0208391
-0.136844
0.0394935
-0.138049
0.0569282
-0.135398
0.0729683
-0.129758
0.0875381
-0.121954
0.100626
-0.112724
0.112289
-0.102722
0.122603
-0.0924769
0.131663
-0.0823956
0.139571
-0.0727589
0.14644
-0.0637426
0.152382
-0.0554424
0.1575
-0.0478923
0.161888
-0.0410793
0.165628
-0.0349542
0.168791
-0.0294433
-0.0244591
-0.0207598
0.11947
-0.0410392
0.120292
-0.0599652
0.11657
-0.0764292
0.107295
-0.0887468
0.0902803
-0.0950017
0.0641
-0.0933754
0.0287406
-0.0835516
-0.0129415
-0.0675448
-0.0544013
-0.0479683
-0.0907332
-0.0268808
-0.119279
-0.00586727
-0.13917
0.0142357
-0.150825
0.0333908
-0.155888
0.0513081
-0.155875
0.0677846
-0.151802
0.0827389
-0.144656
0.0961729
-0.135346
0.108152
-0.124672
0.118768
-0.113315
0.128125
-0.101818
0.136331
-0.0905905
0.143495
-0.0799157
0.149726
-0.0699692
0.155128
-0.0608415
0.159795
-0.0525577
0.163811
-0.0450941
0.167248
-0.0383905
0.170167
-0.0323619
-0.0269077
-0.0211174
0.140631
-0.0413632
0.140652
-0.0598865
0.135285
-0.0754475
0.123088
-0.0861169
0.101195
-0.0895238
0.0677548
-0.0837838
0.0232446
-0.0697716
-0.0267188
-0.0505725
-0.0733791
-0.029195
-0.111907
-0.00772813
-0.140562
0.0126905
-0.159428
0.0319417
-0.169938
0.0499749
-0.173806
0.0665027
-0.172309
0.08143
-0.166655
0.0947771
-0.157946
0.106635
-0.14716
0.117127
-0.135132
0.126382
-0.122548
0.134526
-0.109946
0.141675
-0.0977286
0.147936
-0.0861695
0.153408
-0.0754362
0.158179
-0.0656095
0.162328
-0.0567046
0.165922
-0.0486872
0.169019
-0.0414874
0.171669
-0.0350109
-0.0291461
-0.0189004
0.159558
-0.0367641
0.158623
-0.0528721
0.151585
-0.0659734
0.136425
-0.073936
0.10941
-0.0730463
0.0671218
-0.0624788
0.0129307
-0.0451579
-0.0437951
-0.0239501
-0.0943565
-0.00267595
-0.132969
0.017569
-0.160617
0.0365866
-0.178278
0.0543134
-0.187523
0.0704474
-0.189822
0.0848788
-0.186645
0.0976438
-0.179344
0.10887
-0.169114
0.118725
-0.15697
0.127378
-0.143753
0.134989
-0.130135
0.141694
-0.116635
0.147609
-0.103632
0.152829
-0.0913828
0.157436
-0.0800385
0.161498
-0.0696677
0.16507
-0.0602748
0.1682
-0.0518163
0.170927
-0.0442143
0.173285
-0.037368
-0.0311581
-0.0132648
0.172843
-0.0257179
0.171172
-0.0369602
0.163008
-0.0457384
0.14543
-0.0495642
0.113485
-0.0433059
0.0611208
-0.0277213
-0.00239687
-0.00834338
-0.0629237
0.0114546
-0.113919
0.0306449
-0.151942
0.0488923
-0.178669
0.0657825
-0.194998
0.080964
-0.202559
0.0943282
-0.203065
0.105933
-0.198152
0.115946
-0.189279
0.124581
-0.177689
0.13206
-0.164404
0.138586
-0.150246
0.14433
-0.135855
0.149427
-0.121715
0.153979
-0.108173
0.158061
-0.0954577
0.16173
-0.0837023
0.165026
-0.0729609
0.16798
-0.0632274
0.170616
-0.0544509
0.172951
-0.0465487
0.175
-0.0394165
-0.0329309
-0.00410541
0.176955
-0.00776047
0.174897
-0.0117643
0.167165
-0.0136629
0.147536
-0.00962538
0.109684
0.00259098
0.0491557
0.0191952
-0.018746
0.0368208
-0.0802997
0.0540793
-0.13094
0.0708074
-0.168452
0.0860722
-0.193738
0.099529
-0.208283
0.111068
-0.213952
0.120778
-0.212653
0.128868
-0.206144
0.135606
-0.195939
0.141265
-0.183288
0.146096
-0.16919
0.150306
-0.154422
0.154053
-0.139579
0.157453
-0.125098
0.16058
-0.111289
0.163481
-0.0983509
0.16618
-0.0863963
0.168687
-0.0754656
0.171006
-0.0655442
0.173133
-0.0565768
0.175064
-0.0484789
0.176794
-0.0411465
-0.0344565
0.00955626
0.167375
0.0177006
0.166782
0.0234825
0.161499
0.0308592
0.140338
0.0434634
0.0972984
0.0588217
0.0340383
0.0745641
-0.0342394
0.0900664
-0.0955555
0.104331
-0.144969
0.117019
-0.180922
0.127751
-0.204274
0.136465
-0.216827
0.143317
-0.220657
0.148583
-0.217798
0.152595
-0.210057
0.15568
-0.198947
0.15813
-0.185678
0.160181
-0.171196
0.162012
-0.15622
0.163744
-0.141288
0.165453
-0.12679
0.167172
-0.112997
0.168911
-0.100082
0.170658
-0.0881384
0.172391
-0.0771958
0.174084
-0.0672349
0.175707
-0.0581995
0.177236
-0.050007
0.178648
-0.0425576
-0.0357329
0.0305553
0.136736
0.0512808
0.146073
0.0662202
0.146652
0.0829733
0.123743
0.102327
0.0781468
0.120909
0.0156848
0.136661
-0.0497505
0.149548
-0.108202
0.159496
-0.154687
0.16675
-0.187962
0.171625
-0.208957
0.174522
-0.219555
0.175892
-0.221883
0.176185
-0.217971
0.175807
-0.209582
0.175094
-0.198157
0.174305
-0.18483
0.173622
-0.170469
0.173161
-0.155727
0.172983
-0.141086
0.173104
-0.126895
0.173512
-0.113393
0.17417
-0.100733
0.175031
-0.0889943
0.176041
-0.0782022
0.177144
-0.0683367
0.178291
-0.059345
0.179435
-0.0511502
0.180538
-0.04366
-0.0367642
0.207473
0.00526449
0.207103
0.0104475
0.206545
0.0156987
0.205797
0.0210611
0.20486
0.0264448
0.203741
0.031718
0.202455
0.0367724
0.20102
0.0415512
0.199457
0.0460566
0.197788
0.0503413
0.196032
0.0544924
0.194207
0.058615
0.192331
0.0628192
0.190418
0.0672121
0.188483
0.0718953
0.186542
0.076965
0.184611
0.0825152
0.18271
0.0886426
0.180862
0.0954531
0.179099
0.10307
0.17746
0.111642
0.175996
0.121362
0.174779
0.132481
0.173908
0.145344
0.173538
0.160438
0.173946
0.178488
0.175787
0.200569
0.181476
0.227861
0.20547
0.256918
0.273098
0.31668
0.212516
0.00543095
0.212186
0.0107776
0.21169
0.0161942
0.211025
0.0217241
0.210196
0.0272726
0.209209
0.0327014
0.208082
0.0378957
0.206832
0.042794
0.205482
0.0473958
0.204056
0.0517524
0.202576
0.0559507
0.201065
0.0600957
0.199547
0.0642974
0.198043
0.0686623
0.196579
0.0732899
0.195183
0.0782731
0.193889
0.0837006
0.192738
0.089661
0.191787
0.0962484
0.191107
0.103568
0.190798
0.111745
0.191006
0.120928
0.191942
0.131302
0.19394
0.143091
0.197567
0.156553
0.203885
0.171918
0.215027
0.189189
0.234814
0.207859
0.264834
0.226714
0.243611
0.294174
0.217683
0.00557528
0.217397
0.0110633
0.216968
0.0166222
0.216396
0.022295
0.215684
0.0279828
0.214842
0.0335407
0.213885
0.0388477
0.212835
0.0438378
0.211714
0.0485067
0.210547
0.052904
0.209361
0.0571153
0.208183
0.0612443
0.207042
0.0653995
0.205968
0.0696846
0.204995
0.0741953
0.204165
0.0790183
0.203528
0.0842334
0.203146
0.0899167
0.203101
0.0961437
0.203504
0.102993
0.204504
0.110551
0.206311
0.118908
0.209229
0.128154
0.213708
0.138374
0.220416
0.149601
0.230329
0.161766
0.244667
0.174622
0.264515
0.187797
0.289952
0.201084
0.211397
0.322008
0.222976
0.00569565
0.222738
0.0113011
0.222382
0.0169771
0.22191
0.0227665
0.221325
0.028566
0.220637
0.0342249
0.219864
0.0396163
0.219026
0.044669
0.218148
0.0493752
0.217256
0.0537816
0.216379
0.0579714
0.215549
0.0620463
0.214799
0.0661115
0.214167
0.0702668
0.213696
0.0746019
0.213439
0.0791952
0.213458
0.0841154
0.213834
0.0894223
0.214668
0.0951697
0.216095
0.101406
0.218293
0.108173
0.221502
0.115502
0.226043
0.123403
0.232348
0.13185
0.240978
0.140751
0.252607
0.149922
0.267986
0.15904
0.288046
0.167551
0.314235
0.174736
0.178114
0.3474
0.228398
0.00579078
0.22821
0.0114884
0.227931
0.0172553
0.227563
0.0231334
0.227112
0.0290158
0.226588
0.0347461
0.226008
0.0401919
0.225393
0.045277
0.224769
0.0499897
0.224163
0.0543732
0.223607
0.0585077
0.223135
0.0624913
0.222786
0.0664252
0.222602
0.0704039
0.222634
0.0745099
0.222942
0.0788123
0.223599
0.0833665
0.224695
0.0882159
0.226345
0.0933914
0.228692
0.0989115
0.231922
0.10478
0.236268
0.110978
0.242027
0.117456
0.249566
0.124118
0.259322
0.130803
0.271808
0.137251
0.287606
0.143072
0.307356
0.147653
0.3317
0.150276
0.149887
0.359854
0.233952
0.00585883
0.233818
0.0116218
0.233621
0.0174517
0.233364
0.0233896
0.233053
0.0293251
0.2327
0.0350965
0.232321
0.0405664
0.231938
0.0456538
0.231576
0.0503425
0.231264
0.0546718
0.231035
0.0587182
0.230925
0.0625756
0.230976
0.0663404
0.231236
0.0701008
0.231758
0.0739318
0.232609
0.0778923
0.233867
0.0820252
0.235625
0.0863574
0.238001
0.0908997
0.241136
0.0956455
0.245203
0.100567
0.250413
0.105612
0.257016
0.11069
0.2653
0.115669
0.27559
0.120351
0.288229
0.124461
0.303539
0.127627
0.321721
0.129362
0.3428
0.129122
0.12643
0.366223
0.239641
0.00589895
0.239563
0.0116994
0.23945
0.0175637
0.239307
0.0235315
0.239142
0.0294891
0.238965
0.0352707
0.238793
0.040734
0.238647
0.0457933
0.238553
0.050428
0.238539
0.0546733
0.238639
0.0586012
0.23889
0.0623009
0.239336
0.0658635
0.240026
0.0693708
0.241018
0.07289
0.242377
0.0764704
0.244184
0.0801436
0.24653
0.0839225
0.249526
0.0878015
0.253301
0.091755
0.258009
0.0957347
0.263821
0.0996658
0.270933
0.103441
0.279553
0.106912
0.289888
0.109885
0.302119
0.11211
0.316362
0.113285
0.332599
0.113051
0.350665
0.111016
0.106931
0.370158
0.245468
0.00590989
0.245448
0.011719
0.245423
0.017588
0.245398
0.023555
0.245382
0.0295037
0.245386
0.0352643
0.245426
0.0406905
0.245521
0.0456923
0.245696
0.0502446
0.24598
0.0543782
0.246405
0.0581602
0.247009
0.0616752
0.247836
0.0650083
0.248936
0.0682355
0.250365
0.0714164
0.252188
0.0745923
0.25448
0.0777851
0.257328
0.0809971
0.260831
0.0842109
0.265099
0.0873888
0.270256
0.0904712
0.276436
0.0933744
0.283777
0.0959876
0.292409
0.0981698
0.302443
0.0997484
0.313946
0.100519
0.326911
0.10025
0.341222
0.0986941
0.356624
0.0955985
0.0908554
0.372714
0.251436
0.00589107
0.251475
0.0116793
0.251539
0.0175229
0.251635
0.023458
0.251771
0.0293663
0.251958
0.035075
0.252211
0.0404343
0.252547
0.0453502
0.252991
0.0497935
0.253568
0.0537902
0.254311
0.0574029
0.255256
0.0607109
0.256446
0.0637941
0.257927
0.0667225
0.259754
0.0695497
0.261989
0.0723103
0.264698
0.075019
0.267959
0.0776708
0.271854
0.0802416
0.276473
0.0826879
0.28191
0.0849468
0.288258
0.0869358
0.295605
0.0885515
0.304018
0.0896709
0.313538
0.0901521
0.324155
0.0898388
0.335792
0.0885673
0.348284
0.0861788
0.361354
0.0825316
0.0775984
0.374636
0.257547
0.00584239
0.257646
0.0115803
0.2578
0.0173685
0.258016
0.0232409
0.258303
0.0290776
0.258672
0.0347038
0.259136
0.039967
0.259712
0.04477
0.260419
0.0490796
0.261282
0.0529173
0.262331
0.0563411
0.2636
0.0594253
0.265128
0.0622448
0.266959
0.0648645
0.269142
0.067333
0.271731
0.0696801
0.274787
0.0719158
0.278371
0.0740314
0.282552
0.0760002
0.287395
0.0777782
0.292966
0.0793057
0.299324
0.0805073
0.306512
0.0812943
0.314553
0.081566
0.323436
0.0812135
0.333107
0.0801251
0.343454
0.0781937
0.354298
0.0753273
0.365384
0.0714588
0.0666039
0.376409
0.263806
0.0057635
0.263965
0.0114215
0.264208
0.0171243
0.264545
0.0229034
0.264983
0.0286382
0.265532
0.0341525
0.266204
0.0392923
0.267012
0.0439575
0.267975
0.0481113
0.269112
0.0517715
0.270451
0.0549911
0.272022
0.0578401
0.273859
0.0603888
0.276003
0.0626981
0.278495
0.0648126
0.281382
0.066759
0.284713
0.0685454
0.288538
0.070162
0.292906
0.071583
0.297864
0.0727682
0.30345
0.0736646
0.309695
0.0742085
0.31661
0.0743279
0.324184
0.0739458
0.332376
0.0729838
0.341107
0.0713677
0.350254
0.0690338
0.359647
0.0659368
0.369069
0.0620563
0.0574299
0.378275
0.270215
0.00565494
0.270433
0.0112038
0.270765
0.0167918
0.271219
0.0224479
0.271805
0.0280512
0.27253
0.0334255
0.273404
0.0384158
0.274438
0.0429204
0.275644
0.0468995
0.277042
0.0503669
0.278651
0.0533717
0.2805
0.0559796
0.282616
0.058257
0.285033
0.0602614
0.287788
0.0620351
0.290916
0.0636032
0.294456
0.0649734
0.298445
0.0661376
0.302917
0.0670735
0.307898
0.0677469
0.313407
0.0681141
0.319451
0.0681245
0.326019
0.0677233
0.333078
0.0668551
0.34057
0.0654675
0.348407
0.063516
0.356469
0.0609682
0.364606
0.0578093
0.372637
0.0540467
0.0497272
0.38037
0.276779
0.00551675
0.277055
0.0109276
0.277474
0.0163718
0.278046
0.0218757
0.278777
0.0273193
0.279673
0.0325271
0.280742
0.0373444
0.281991
0.0416684
0.283429
0.0454569
0.28507
0.0487204
0.286929
0.0515042
0.289029
0.0538702
0.291391
0.0558817
0.294043
0.0575935
0.297013
0.0590465
0.300329
0.0602656
0.304018
0.06126
0.308104
0.0620243
0.312607
0.0625416
0.317538
0.0627851
0.322901
0.0627211
0.328685
0.0623122
0.334864
0.0615193
0.341393
0.0603058
0.348206
0.05864
0.355217
0.0564991
0.362315
0.0538723
0.369372
0.0507641
0.376244
0.0471964
0.043218
0.382781
0.283499
0.00535031
0.283831
0.0105955
0.284334
0.0158682
0.285017
0.0211924
0.285886
0.0264492
0.286946
0.0314654
0.288201
0.0360878
0.289653
0.0402133
0.291308
0.0437981
0.293174
0.0468499
0.295261
0.0494105
0.297584
0.0515385
0.300162
0.0532944
0.303012
0.0547311
0.306154
0.055889
0.30961
0.0567937
0.313394
0.0574565
0.317522
0.0578764
0.322
0.0580421
0.326828
0.0579348
0.331998
0.0575307
0.337486
0.0568042
0.343259
0.05573
0.349266
0.0542865
0.355442
0.0524577
0.361704
0.0502362
0.367956
0.0476253
0.374093
0.0446403
0.379999
0.0413099
0.0376805
0.38556
0.29038
0.00515628
0.290766
0.010209
0.29135
0.0152838
0.29214
0.0204019
0.293142
0.025447
0.294357
0.0302489
0.295786
0.0346569
0.297429
0.0385688
0.299284
0.0419398
0.301355
0.0447752
0.303646
0.047114
0.306166
0.0490116
0.308926
0.0505262
0.311938
0.0517095
0.315215
0.0526016
0.318766
0.0532293
0.322602
0.0536071
0.326725
0.053738
0.331135
0.053617
0.335822
0.0532326
0.340768
0.0525703
0.345946
0.0516144
0.351315
0.0503512
0.356824
0.0487702
0.362413
0.0468671
0.368006
0.0446447
0.373524
0.0421146
0.378879
0.0392977
0.383982
0.0362246
0.0329375
0.388745
0.297426
0.00493598
0.297864
0.00977085
0.298525
0.0146225
0.299416
0.01951
0.300543
0.02432
0.301904
0.0288867
0.303496
0.0330631
0.305315
0.0367488
0.307353
0.0398987
0.309609
0.0425162
0.312081
0.0446376
0.314772
0.0463157
0.317686
0.0476067
0.320827
0.0485608
0.324202
0.0492186
0.327813
0.0496083
0.331663
0.0497473
0.335748
0.0496431
0.340058
0.0492961
0.344579
0.0487017
0.349287
0.047853
0.354151
0.046743
0.359131
0.0453661
0.364177
0.0437208
0.369234
0.0418104
0.374239
0.0396441
0.379123
0.037238
0.383816
0.0346152
0.38825
0.0318052
0.0288452
0.392358
0.30464
0.00469106
0.305126
0.00928418
0.305859
0.0138894
0.306845
0.0185236
0.308088
0.0230771
0.309584
0.0273898
0.311326
0.0313196
0.313305
0.0347686
0.315509
0.0376924
0.31793
0.0400928
0.320561
0.0420038
0.323397
0.0434756
0.326437
0.0445623
0.329679
0.0453133
0.333122
0.0457692
0.336764
0.0459597
0.3406
0.0459048
0.34462
0.0456161
0.34881
0.0450987
0.353152
0.0443539
0.357618
0.0433809
0.362178
0.0421793
0.366791
0.04075
0.371415
0.0390973
0.375997
0.0372294
0.380487
0.0351593
0.384827
0.032905
0.388962
0.0304893
0.392839
0.0279395
0.0252876
0.396409
0.312026
0.0044227
0.312559
0.00875154
0.31336
0.0130885
0.314435
0.0174483
0.315786
0.0217259
0.317407
0.025768
0.319287
0.0294383
0.321412
0.0326428
0.323765
0.0353377
0.326332
0.037524
0.3291
0.0392335
0.332059
0.0405139
0.335201
0.0414173
0.338518
0.0419918
0.342005
0.0422779
0.345654
0.0423067
0.349453
0.0421004
0.353391
0.0416736
0.35745
0.0410357
0.361608
0.0401923
0.365838
0.0391477
0.370109
0.037906
0.374385
0.0364729
0.378627
0.0348564
0.382792
0.0330676
0.386834
0.0311211
0.39071
0.0290351
0.394376
0.0268311
0.397791
0.0245334
0.0221692
0.400918
0.31959
0.00413233
0.320165
0.00817579
0.32103
0.012224
0.322188
0.0162899
0.32364
0.0202739
0.325376
0.0240307
0.327383
0.0274308
0.329641
0.0303846
0.332127
0.0328498
0.334823
0.0348269
0.337709
0.0363453
0.340771
0.0374503
0.343994
0.0381916
0.347367
0.0386162
0.350878
0.0387639
0.354516
0.0386665
0.358265
0.0383478
0.362111
0.037825
0.366034
0.0371104
0.370011
0.0362131
0.374016
0.0351408
0.37802
0.0339011
0.381991
0.0325024
0.385894
0.030955
0.389693
0.0292714
0.393351
0.0274667
0.396833
0.025558
0.400105
0.0235649
0.403137
0.0215086
0.0194118
0.405901
0.327333
0.00382221
0.327948
0.00756129
0.328869
0.0113028
0.330101
0.0150575
0.331642
0.0187324
0.333482
0.0221908
0.335601
0.0253113
0.337976
0.0280094
0.340579
0.0302452
0.343387
0.0320184
0.346374
0.0333566
0.349521
0.0343022
0.352809
0.0349025
0.356221
0.0352025
0.359742
0.0352412
0.363356
0.0350504
0.367047
0.0346548
0.370797
0.0340732
0.374586
0.0333201
0.378391
0.0324068
0.382188
0.0313433
0.38595
0.0301393
0.389648
0.0288049
0.393253
0.0273514
0.396735
0.0257918
0.400065
0.0241403
0.403214
0.0224129
0.406156
0.0206268
0.40887
0.0188
0.0169517
0.411335
0.335263
0.00349284
0.335915
0.00690935
0.336891
0.0103268
0.338194
0.0137545
0.33982
0.0171063
0.341755
0.0202554
0.343977
0.0230889
0.346457
0.0255284
0.349165
0.0275364
0.352071
0.0291125
0.355145
0.0302818
0.358362
0.0310841
0.3617
0.0315636
0.365138
0.031763
0.368658
0.03172
0.372241
0.0314656
0.37587
0.0310248
0.379526
0.030417
0.383187
0.0296579
0.386833
0.0287603
0.390441
0.0277354
0.393987
0.026594
0.397446
0.0253469
0.400793
0.0240056
0.404004
0.0225826
0.407055
0.0210912
0.409925