/*--------------------------------*- C++ -*----------------------------------*\
| =========                 |                                                 |
| \\      /  F ield         | OpenFOAM: The Open Source CFD Toolbox           |
|  \\    /   O peration     | Version:  2012                                  |
|   \\  /    A nd           | Website:  www.openfoam.com                      |
|    \\/     M anipulation  |                                                 |
\*---------------------------------------------------------------------------*/
FoamFile
{
    version     2.0;
    format      ascii;
    class       pointVectorField;
    location    "0.2";
    object      pointDisplacement;
}
// * * * * * * * * * * * * * * * * * * * * * * * * * * * * * * * * * * * * * //

dimensions      [0 1 0 0 0 0 0];


internalField   nonuniform List<vector> 
5828
(
(0 0 0)
(4.51751e-07 0 0)
(1.08017e-06 0 0)
(2.15422e-06 0 0)
(4.05707e-06 0 0)
(7.36868e-06 0 0)
(1.29711e-05 0 0)
(2.21682e-05 0 0)
(3.68215e-05 0 0)
(5.94918e-05 0 0)
(9.35687e-05 0 0)
(0.000143357 0 0)
(0.000214085 0 0)
(0.00031177 0 0)
(0.00044291 0 0)
(0.000613898 0 0)
(0.000830147 0 0)
(0.00109485 0 0)
(0.00140739 0 0)
(0.00176149 0 0)
(0.00214317 0 0)
(0.00252895 0 0)
(0.00288455 0 0)
(0.00316491 0 0)
(0.00331621 0 0)
(0.0032813 0 0)
(0.00301011 0 0)
(0.00247897 0 0)
(0.00172766 0 0)
(0.00094464 0 0)
(3.4569e-18 0 0)
(0 0 0)
(4.24533e-07 0 7.22516e-09)
(1.01981e-06 0 1.75675e-08)
(2.04218e-06 0 3.58445e-08)
(3.85987e-06 0 6.92941e-08)
(7.03438e-06 0 1.29444e-07)
(1.24232e-05 0 2.34707e-07)
(2.12987e-05 0 4.13773e-07)
(3.54847e-05 0 7.10048e-07)
(5.75e-05 0 1.18729e-06)
(9.06926e-05 0 1.93653e-06)
(0.000139335 0 3.08411e-06)
(0.00020864 0 4.80092e-06)
(0.000304656 0 7.3122e-06)
(0.000433966 0 1.0908e-05)
(0.000603149 0 1.59541e-05)
(0.00081793 0 2.29041e-05)
(0.00108199 0 3.2315e-05)
(0.00139543 0 4.48717e-05)
(0.00175296 0 6.14265e-05)
(0.00214193 0 8.30679e-05)
(0.00254057 0 0.000111228)
(0.00291678 0 0.00014784)
(0.0032282 0 0.000195521)
(0.00342433 0 0.000257744)
(0.00345207 0 0.000338817)
(0.00326628 0 0.000443306)
(0.0028488 0 0.00057392)
(0.00224349 0 0.000725161)
(0.00162659 0 0.00086553)
(0.00116406 0 0.00101725)
(0 0 0)
(3.90072e-07 0 1.38839e-08)
(9.43538e-07 0 3.38457e-08)
(1.90059e-06 0 6.92067e-08)
(3.61089e-06 0 1.34028e-07)
(6.61314e-06 0 2.50775e-07)
(1.17351e-05 0 4.55388e-07)
(2.02125e-05 0 8.03929e-07)
(3.38277e-05 0 1.3813e-06)
(5.50586e-05 0 2.31229e-06)
(8.72231e-05 0 3.77509e-06)
(0.000134591 0 6.01703e-06)
(0.000202428 0 9.37229e-06)
(0.000296923 0 1.42807e-05)
(0.000424948 0 2.13071e-05)
(0.000593582 0 3.11607e-05)
(0.000809354 0 4.47148e-05)
(0.00107716 0 6.30314e-05)
(0.00139885 0 8.73974e-05)
(0.00177159 0 0.000119386)
(0.00218605 0 0.000160964)
(0.0026248 0 0.000214659)
(0.00306132 0 0.000283806)
(0.0034602 0 0.000372809)
(0.00377928 0 0.000487295)
(0.00397499 0 0.000633785)
(0.00401187 0 0.000818066)
(0.00387796 0 0.00104061)
(0.00360865 0 0.00128622)
(0.00332393 0 0.00150517)
(0.00306641 0 0.00167211)
(0 0 0)
(3.76514e-07 0 2.00393e-08)
(9.13502e-07 0 4.89633e-08)
(1.84487e-06 0 1.00288e-07)
(3.51373e-06 0 1.94472e-07)
(6.45119e-06 0 3.64278e-07)
(1.14767e-05 0 6.62159e-07)
(1.98188e-05 0 1.16997e-06)
(3.32578e-05 0 2.01168e-06)
(5.4283e-05 0 3.36944e-06)
(8.62495e-05 0 5.50308e-06)
(0.000133511 0 8.77275e-06)
(0.000201497 0 1.36638e-05)
(0.000296685 0 2.08127e-05)
(0.000426421 0 3.10326e-05)
(0.000598538 0 4.5336e-05)
(0.000820712 0 6.49562e-05)
(0.00109952 0 9.13681e-05)
(0.00143924 0 0.000126319)
(0.00184037 0 0.000171881)
(0.00229812 0 0.000230556)
(0.00280106 0 0.000305442)
(0.00333027 0 0.000400469)
(0.0038596 0 0.00052064)
(0.00435751 0 0.000672049)
(0.00479108 0 0.000861182)
(0.0051322 0 0.00109245)
(0.00536485 0 0.00136199)
(0.00549086 0 0.00164517)
(0.00553787 0 0.00187863)
(0.00550109 0 0.00203384)
(0 0 0)
(3.64724e-07 0 2.58292e-08)
(8.87005e-07 0 6.32038e-08)
(1.79582e-06 0 1.29574e-07)
(3.42904e-06 0 2.51408e-07)
(6.31223e-06 0 4.71131e-07)
(1.12599e-05 0 8.5666e-07)
(1.94993e-05 0 1.51393e-06)
(3.28185e-05 0 2.60323e-06)
(5.37335e-05 0 4.35972e-06)
(8.56617e-05 0 7.11818e-06)
(0.000133081 0 1.13412e-05)
(0.000201642 0 1.76498e-05)
(0.000298202 0 2.68535e-05)
(0.000430717 0 3.99786e-05)
(0.000607969 0 5.8289e-05)
(0.00083905 0 8.32997e-05)
(0.0011326 0 0.000116782)
(0.00149581 0 0.000160767)
(0.00193319 0 0.000217564)
(0.00244529 0 0.000289807)
(0.00302756 0 0.000380565)
(0.00366967 0 0.000493496)
(0.00435545 0 0.000632978)
(0.00506393 0 0.000803983)
(0.00577115 0 0.00101116)
(0.00645165 0 0.0012561)
(0.00707635 0 0.00153105)
(0.00760189 0 0.00180697)
(0.00796101 0 0.00201994)
(0.00811976 0 0.00214799)
(0 0 0)
(3.54434e-07 0 3.12389e-08)
(8.63701e-07 0 7.65078e-08)
(1.75277e-06 0 1.56907e-07)
(3.35532e-06 0 3.04468e-07)
(6.19293e-06 0 5.7054e-07)
(1.10778e-05 0 1.03726e-06)
(1.924e-05 0 1.83261e-06)
(3.24818e-05 0 3.14991e-06)
(5.33567e-05 0 5.27216e-06)
(8.53608e-05 0 8.60102e-06)
(0.00013312 0 1.36893e-05)
(0.000202548 0 2.12751e-05)
(0.000300931 0 3.23139e-05)
(0.000436917 0 4.80049e-05)
(0.00062034 0 6.9805e-05)
(0.000861854 0 9.94266e-05)
(0.00117234 0 0.000138815)
(0.0015621 0 0.000190108)
(0.00203985 0 0.00025559)
(0.00261166 0 0.000337654)
(0.00327989 0 0.000438799)
(0.00404246 0 0.000561659)
(0.00489234 0 0.000709003)
(0.00581732 0 0.000883524)
(0.00679922 0 0.00108698)
(0.00781052 0 0.00131789)
(0.00880372 0 0.00156637)
(0.00968779 0 0.00180458)
(0.0103083 0 0.00197747)
(0.0106151 0 0.00207061)
(0 0 0)
(3.45447e-07 0 3.62614e-08)
(8.43239e-07 0 8.88407e-08)
(1.71497e-06 0 1.82182e-07)
(3.29088e-06 0 3.53393e-07)
(6.08961e-06 0 6.61922e-07)
(1.09226e-05 0 1.20275e-06)
(1.90248e-05 0 2.12359e-06)
(3.22166e-05 0 3.64713e-06)
(5.30935e-05 0 6.09841e-06)
(8.52377e-05 0 9.93706e-06)
(0.000133434 0 1.57927e-05)
(0.000203868 0 2.45005e-05)
(0.00030428 0 3.71332e-05)
(0.000444024 0 5.50217e-05)
(0.000634005 0 7.97582e-05)
(0.000886446 0 0.000113172)
(0.00121445 0 0.000157271)
(0.00163135 0 0.000214149)
(0.00214988 0 0.000285856)
(0.00278119 0 0.000374259)
(0.00353384 0 0.000480904)
(0.00441271 0 0.000606897)
(0.00541793 0 0.000752793)
(0.00654319 0 0.000918385)
(0.00777248 0 0.00110215)
(0.00907257 0 0.00129983)
(0.0103759 0 0.00150121)
(0.011548 0 0.00168375)
(0.0123635 0 0.00180689)
(0.0127666 0 0.0018659)
(0 0 0)
(3.37618e-07 0 4.09001e-08)
(8.25303e-07 0 1.00196e-07)
(1.6817e-06 0 2.05357e-07)
(3.23406e-06 0 3.98048e-07)
(5.99856e-06 0 7.44931e-07)
(1.07863e-05 0 1.35233e-06)
(1.88379e-05 0 2.38526e-06)
(3.19914e-05 0 4.09181e-06)
(5.28841e-05 0 6.83292e-06)
(8.51818e-05 0 1.11168e-05)
(0.000133823 0 1.7636e-05)
(0.000205258 0 2.7303e-05)
(0.000307656 0 4.1279e-05)
(0.000451044 0 6.09881e-05)
(0.000647337 0 8.81055e-05)
(0.000910216 0 0.00012451)
(0.00125481 0 0.000172186)
(0.00169719 0 0.000233075)
(0.00225357 0 0.000308865)
(0.00293939 0 0.000400741)
(0.00376811 0 0.000509114)
(0.00474977 0 0.000633367)
(0.00588909 0 0.000771653)
(0.00718246 0 0.000920749)
(0.00861265 0 0.00107592)
(0.0101384 0 0.0012306)
(0.0116732 0 0.00137531)
(0.0130484 0 0.00149462)
(0.0139883 0 0.00156472)
(0.0144429 0 0.00158686)
(0 0 0)
(3.30849e-07 0 4.5171e-08)
(8.09647e-07 0 1.10601e-07)
(1.65236e-06 0 2.26458e-07)
(3.18341e-06 0 4.38429e-07)
(5.91647e-06 0 8.19475e-07)
(1.06619e-05 0 1.48571e-06)
(1.86644e-05 0 2.6169e-06)
(3.17769e-05 0 4.48248e-06)
(5.26725e-05 0 7.47299e-06)
(8.50899e-05 0 1.21359e-05)
(0.000134102 0 1.92129e-05)
(0.000206392 0 2.96743e-05)
(0.000310508 0 4.47441e-05)
(0.000457066 0 6.59049e-05)
(0.00065886 0 9.48724e-05)
(0.000930825 0 0.000133524)
(0.00128981 0 0.000183766)
(0.00175413 0 0.000247334)
(0.00234279 0 0.000325508)
(0.00307449 0 0.000418775)
(0.00396612 0 0.000526434)
(0.00503087 0 0.00064624)
(0.00627549 0 0.000774128)
(0.00769612 0 0.000904162)
(0.00927152 0 0.00102882)
(0.0109512 0 0.00113972)
(0.0126328 0 0.00122853)
(0.0141237 0 0.00128702)
(0.0151198 0 0.00130773)
(0.0155802 0 0.00129624)
(0 0 0)
(3.25094e-07 0 4.91043e-08)
(7.96129e-07 0 1.20117e-07)
(1.62653e-06 0 2.45583e-07)
(3.13784e-06 0 4.74675e-07)
(5.84077e-06 0 8.85729e-07)
(1.05436e-05 0 1.60309e-06)
(1.84922e-05 0 2.81869e-06)
(3.15486e-05 0 4.81924e-06)
(5.24115e-05 0 8.01871e-06)
(8.4874e-05 0 1.29946e-05)
(0.000134114 0 2.05246e-05)
(0.000206996 0 3.16195e-05)
(0.00031237 0 4.75423e-05)
(0.000461322 0 6.98059e-05)
(0.000667342 0 0.000100134)
(0.000946352 0 0.00014037)
(0.00131653 0 0.000192318)
(0.00179788 0 0.0002575)
(0.00241144 0 0.000336825)
(0.00317805 0 0.000430173)
(0.00411669 0 0.00053593)
(0.00524189 0 0.000650532)
(0.00656031 0 0.000768162)
(0.00806561 0 0.000880769)
(0.0097308 0 0.000978709)
(0.0114959 0 0.00105232)
(0.0132462 0 0.00109454)
(0.0147753 0 0.00110367)
(0.0157694 0 0.00108627)
(0.0161937 0 0.0010519)
(0 0 0)
(3.20368e-07 0 5.27458e-08)
(7.84749e-07 0 1.28844e-07)
(1.60409e-06 0 2.62908e-07)
(3.09686e-06 0 5.07076e-07)
(5.76997e-06 0 9.44152e-07)
(1.04276e-05 0 1.70516e-06)
(1.83128e-05 0 2.9917e-06)
(3.12891e-05 0 5.1038e-06)
(5.20661e-05 0 8.47281e-06)
(8.44681e-05 0 1.36975e-05)
(0.000133737 0 2.15798e-05)
(0.000206859 0 3.31544e-05)
(0.000312886 0 4.97038e-05)
(0.00046323 0 7.27482e-05)
(0.000671862 0 0.000103996)
(0.000955389 0 0.000145241)
(0.00133289 0 0.000198182)
(0.0018255 0 0.00026416)
(0.00245549 0 0.000343799)
(0.00324497 0 0.000436547)
(0.00421378 0 0.000540165)
(0.00537653 0 0.000650222)
(0.00673844 0 0.000759751)
(0.00828955 0 0.000859319)
(0.00999658 0 0.000937909)
(0.011791 0 0.000985117)
(0.0135492 0 0.000995084)
(0.015059 0 0.00097145)
(0.016011 0 0.000931386)
(0.0163815 0 0.000889562)
(0 0 0)
(3.16759e-07 0 5.61576e-08)
(7.75677e-07 0 1.36922e-07)
(1.58528e-06 0 2.78691e-07)
(3.06065e-06 0 5.36077e-07)
(5.70392e-06 0 9.95488e-07)
(1.03129e-05 0 1.79316e-06)
(1.81227e-05 0 3.13794e-06)
(3.09891e-05 0 5.33939e-06)
(5.16168e-05 0 8.84059e-06)
(8.38327e-05 0 1.42536e-05)
(0.000132898 0 2.23932e-05)
(0.000205849 0 3.4304e-05)
(0.000311832 0 5.1271e-05)
(0.000462421 0 7.48039e-05)
(0.000671845 0 0.000106581)
(0.000957073 0 0.000148337)
(0.00133767 0 0.000201682)
(0.00183532 0 0.000267827)
(0.00247291 0 0.000347221)
(0.00327301 0 0.000439083)
(0.00425552 0 0.000540877)
(0.00543441 0 0.000647776)
(0.00681299 0 0.000752283)
(0.00837776 0 0.000844292)
(0.01009 0 0.000912056)
(0.0118746 0 0.000944767)
(0.0136026 0 0.000937471)
(0.0150613 0 0.000897784)
(0.0159532 0 0.000850146)
(0.0162575 0 0.000810366)
(0 0 0)
(3.14434e-07 0 5.94195e-08)
(7.69276e-07 0 1.44533e-07)
(1.57071e-06 0 2.93272e-07)
(3.03018e-06 0 5.6228e-07)
(5.64396e-06 0 1.04077e-06)
(1.02009e-05 0 1.86882e-06)
(1.79234e-05 0 3.26027e-06)
(3.06493e-05 0 5.5307e-06)
(5.10609e-05 0 9.1297e-06)
(8.29583e-05 0 1.4675e-05)
(0.000131575 0 2.29847e-05)
(0.000203918 0 3.51006e-05)
(0.00030912 0 5.22958e-05)
(0.000458753 0 7.60547e-05)
(0.000667068 0 0.000108014)
(0.000951084 0 0.000149851)
(0.00133044 0 0.000203102)
(0.00182689 0 0.000268904)
(0.00246334 0 0.000347637)
(0.00326223 0 0.000438485)
(0.00424303 0 0.000538909)
(0.00541882 0 0.000644107)
(0.00679132 0 0.000746592)
(0.00834457 0 0.000836156)
(0.0100366 0 0.00090074)
(0.0117888 0 0.000929093)
(0.0134701 0 0.000916357)
(0.0148712 0 0.000872562)
(0.0157081 0 0.000827405)
(0.0159674 0 0.000803671)
(0 0 0)
(3.13647e-07 0 6.26292e-08)
(7.6612e-07 0 1.51901e-07)
(1.56145e-06 0 3.07077e-07)
(3.00725e-06 0 5.86447e-07)
(5.5931e-06 0 1.08132e-06)
(1.00966e-05 0 1.93438e-06)
(1.77221e-05 0 3.36242e-06)
(3.02804e-05 0 5.68385e-06)
(5.04137e-05 0 9.35002e-06)
(8.18661e-05 0 1.49778e-05)
(0.000129795 0 2.33793e-05)
(0.000201107 0 3.55829e-05)
(0.000304806 0 5.28372e-05)
(0.000452303 0 7.65893e-05)
(0.000657649 0 0.000108425)
(0.000937617 0 0.000149963)
(0.00131154 0 0.000202682)
(0.0018008 0 0.000267686)
(0.00242781 0 0.000345373)
(0.00321441 0 0.000435033)
(0.00417936 0 0.000534353)
(0.00533486 0 0.000638881)
(0.00668175 0 0.00074155)
(0.00820334 0 0.000832476)
(0.00985737 0 0.000899529)
(0.0115658 0 0.000930642)
(0.0131991 0 0.000919497)
(0.014552 0 0.000875773)
(0.0153502 0 0.000832674)
(0.0155937 0 0.000819977)
(0 0 0)
(3.14742e-07 0 6.59029e-08)
(7.67001e-07 0 1.59294e-07)
(1.559e-06 0 3.20618e-07)
(2.99458e-06 0 6.09497e-07)
(5.55598e-06 0 1.11874e-06)
(1.00077e-05 0 1.99257e-06)
(1.75318e-05 0 3.44895e-06)
(2.99031e-05 0 5.80631e-06)
(4.97081e-05 0 9.51356e-06)
(8.06076e-05 0 1.51807e-05)
(0.000127638 0 2.36064e-05)
(0.000197538 0 3.57956e-05)
(0.000299078 0 5.29616e-05)
(0.000443358 0 7.65029e-05)
(0.000644027 0 0.000107946)
(0.000917338 0 0.000148847)
(0.00128198 0 0.000200634)
(0.00175854 0 0.000264398)
(0.00236852 0 0.000340607)
(0.00313274 0 0.000428738)
(0.00406895 0 0.000526841)
(0.00518852 0 0.000631017)
(0.00649204 0 0.000734907)
(0.00796369 0 0.000829316)
(0.00956404 0 0.00090237)
(0.0112205 0 0.000941067)
(0.012811 0 0.000936149)
(0.0141332 0 0.000893013)
(0.0148985 0 0.000844529)
(0.0151387 0 0.000824282)
(0 0 0)
(3.18197e-07 0 6.94092e-08)
(7.72989e-07 0 1.67096e-07)
(1.56535e-06 0 3.34612e-07)
(2.99566e-06 0 6.32699e-07)
(5.53857e-06 0 1.1552e-06)
(9.94408e-06 0 2.047e-06)
(1.73684e-05 0 3.52574e-06)
(2.9543e-05 0 5.90742e-06)
(4.89844e-05 0 9.63484e-06)
(7.92454e-05 0 1.5306e-05)
(0.000125201 0 2.36988e-05)
(0.000193358 0 3.57863e-05)
(0.000292158 0 5.27361e-05)
(0.000432256 0 7.58872e-05)
(0.000626704 0 0.000106696)
(0.000890992 0 0.000146646)
(0.00124284 0 0.000197112)
(0.00170167 0 0.000259173)
(0.00228763 0 0.000333369)
(0.00302007 0 0.000419393)
(0.00391533 0 0.000515696)
(0.00498365 0 0.000619024)
(0.00622535 0 0.000723907)
(0.00762596 0 0.000822217)
(0.00915032 0 0.000903027)
(0.0107355 0 0.00095351)
(0.0122771 0 0.000962642)
(0.0136056 0 0.00093125)
(0.0144314 0 0.000889784)
(0.014534 0 0.000831928)
(0 0 0)
(4.51751e-07 0 0)
(1.08017e-06 0 0)
(2.15422e-06 0 0)
(4.05707e-06 0 0)
(7.36868e-06 0 0)
(1.29711e-05 0 0)
(2.21682e-05 0 0)
(3.68215e-05 0 0)
(5.94918e-05 0 0)
(9.35687e-05 0 0)
(0.000143357 0 0)
(0.000214085 0 0)
(0.00031177 0 0)
(0.00044291 0 0)
(0.000613898 0 0)
(0.000830147 0 0)
(0.00109485 0 0)
(0.00140739 0 0)
(0.00176149 0 0)
(0.00214317 0 0)
(0.00252895 0 0)
(0.00288455 0 0)
(0.00316491 0 0)
(0.00331621 0 0)
(0.0032813 0 0)
(0.00301011 0 0)
(0.00247897 0 0)
(0.00172766 0 0)
(0.00094464 0 0)
(3.46945e-18 0 0)
(0 0 0)
(4.24533e-07 0 7.22516e-09)
(1.01981e-06 0 1.75675e-08)
(2.04218e-06 0 3.58445e-08)
(3.85987e-06 0 6.92941e-08)
(7.03438e-06 0 1.29444e-07)
(1.24232e-05 0 2.34707e-07)
(2.12987e-05 0 4.13773e-07)
(3.54847e-05 0 7.10048e-07)
(5.75e-05 0 1.18729e-06)
(9.06926e-05 0 1.93653e-06)
(0.000139335 0 3.08411e-06)
(0.00020864 0 4.80092e-06)
(0.000304656 0 7.3122e-06)
(0.000433966 0 1.0908e-05)
(0.000603149 0 1.59541e-05)
(0.00081793 0 2.29041e-05)
(0.00108199 0 3.2315e-05)
(0.00139543 0 4.48717e-05)
(0.00175296 0 6.14265e-05)
(0.00214193 0 8.30679e-05)
(0.00254057 0 0.000111228)
(0.00291678 0 0.00014784)
(0.0032282 0 0.000195521)
(0.00342433 0 0.000257744)
(0.00345207 0 0.000338817)
(0.00326628 0 0.000443306)
(0.0028488 0 0.00057392)
(0.00224349 0 0.000725161)
(0.00162659 0 0.00086553)
(0.00116414 0 0.00101725)
(0 0 0)
(3.90072e-07 0 1.38839e-08)
(9.43538e-07 0 3.38457e-08)
(1.90059e-06 0 6.92067e-08)
(3.61089e-06 0 1.34028e-07)
(6.61314e-06 0 2.50775e-07)
(1.17351e-05 0 4.55388e-07)
(2.02125e-05 0 8.03929e-07)
(3.38277e-05 0 1.3813e-06)
(5.50586e-05 0 2.31229e-06)
(8.72231e-05 0 3.77509e-06)
(0.000134591 0 6.01703e-06)
(0.000202428 0 9.37229e-06)
(0.000296923 0 1.42807e-05)
(0.000424948 0 2.13071e-05)
(0.000593582 0 3.11607e-05)
(0.000809354 0 4.47148e-05)
(0.00107716 0 6.30314e-05)
(0.00139885 0 8.73974e-05)
(0.00177159 0 0.000119386)
(0.00218605 0 0.000160964)
(0.0026248 0 0.000214659)
(0.00306132 0 0.000283806)
(0.0034602 0 0.000372809)
(0.00377928 0 0.000487295)
(0.00397499 0 0.000633785)
(0.00401187 0 0.000818066)
(0.00387796 0 0.00104061)
(0.00360865 0 0.00128622)
(0.00332393 0 0.00150517)
(0.00306645 0 0.00167211)
(0 0 0)
(3.76514e-07 0 2.00393e-08)
(9.13502e-07 0 4.89633e-08)
(1.84487e-06 0 1.00288e-07)
(3.51373e-06 0 1.94472e-07)
(6.45119e-06 0 3.64278e-07)
(1.14767e-05 0 6.62159e-07)
(1.98188e-05 0 1.16997e-06)
(3.32578e-05 0 2.01168e-06)
(5.4283e-05 0 3.36944e-06)
(8.62495e-05 0 5.50308e-06)
(0.000133511 0 8.77275e-06)
(0.000201497 0 1.36638e-05)
(0.000296685 0 2.08127e-05)
(0.000426421 0 3.10326e-05)
(0.000598538 0 4.5336e-05)
(0.000820712 0 6.49562e-05)
(0.00109952 0 9.13681e-05)
(0.00143924 0 0.000126319)
(0.00184037 0 0.000171881)
(0.00229812 0 0.000230556)
(0.00280106 0 0.000305442)
(0.00333027 0 0.000400469)
(0.0038596 0 0.00052064)
(0.00435751 0 0.000672049)
(0.00479108 0 0.000861182)
(0.0051322 0 0.00109245)
(0.00536485 0 0.00136199)
(0.00549086 0 0.00164517)
(0.00553787 0 0.00187863)
(0.00550114 0 0.00203385)
(0 0 0)
(3.64724e-07 0 2.58292e-08)
(8.87005e-07 0 6.32038e-08)
(1.79582e-06 0 1.29574e-07)
(3.42904e-06 0 2.51408e-07)
(6.31223e-06 0 4.71131e-07)
(1.12599e-05 0 8.5666e-07)
(1.94993e-05 0 1.51393e-06)
(3.28185e-05 0 2.60323e-06)
(5.37335e-05 0 4.35972e-06)
(8.56617e-05 0 7.11818e-06)
(0.000133081 0 1.13412e-05)
(0.000201642 0 1.76498e-05)
(0.000298202 0 2.68535e-05)
(0.000430717 0 3.99786e-05)
(0.000607969 0 5.8289e-05)
(0.00083905 0 8.32997e-05)
(0.0011326 0 0.000116782)
(0.00149581 0 0.000160767)
(0.00193319 0 0.000217564)
(0.00244529 0 0.000289807)
(0.00302756 0 0.000380565)
(0.00366967 0 0.000493496)
(0.00435545 0 0.000632978)
(0.00506393 0 0.000803983)
(0.00577115 0 0.00101116)
(0.00645165 0 0.0012561)
(0.00707635 0 0.00153105)
(0.00760189 0 0.00180697)
(0.00796101 0 0.00201994)
(0.0081198 0 0.002148)
(0 0 0)
(3.54434e-07 0 3.12389e-08)
(8.63701e-07 0 7.65078e-08)
(1.75277e-06 0 1.56907e-07)
(3.35532e-06 0 3.04468e-07)
(6.19293e-06 0 5.7054e-07)
(1.10778e-05 0 1.03726e-06)
(1.924e-05 0 1.83261e-06)
(3.24818e-05 0 3.14991e-06)
(5.33567e-05 0 5.27216e-06)
(8.53608e-05 0 8.60102e-06)
(0.00013312 0 1.36893e-05)
(0.000202548 0 2.12751e-05)
(0.000300931 0 3.23139e-05)
(0.000436917 0 4.80049e-05)
(0.00062034 0 6.9805e-05)
(0.000861854 0 9.94266e-05)
(0.00117234 0 0.000138815)
(0.0015621 0 0.000190108)
(0.00203985 0 0.00025559)
(0.00261166 0 0.000337654)
(0.00327989 0 0.000438799)
(0.00404246 0 0.000561659)
(0.00489234 0 0.000709003)
(0.00581732 0 0.000883524)
(0.00679922 0 0.00108698)
(0.00781052 0 0.00131789)
(0.00880372 0 0.00156637)
(0.00968779 0 0.00180458)
(0.0103083 0 0.00197747)
(0.0106151 0 0.00207061)
(0 0 0)
(3.45447e-07 0 3.62614e-08)
(8.43239e-07 0 8.88407e-08)
(1.71497e-06 0 1.82182e-07)
(3.29088e-06 0 3.53393e-07)
(6.08961e-06 0 6.61922e-07)
(1.09226e-05 0 1.20275e-06)
(1.90248e-05 0 2.12359e-06)
(3.22166e-05 0 3.64713e-06)
(5.30935e-05 0 6.09841e-06)
(8.52377e-05 0 9.93706e-06)
(0.000133434 0 1.57927e-05)
(0.000203868 0 2.45005e-05)
(0.00030428 0 3.71332e-05)
(0.000444024 0 5.50217e-05)
(0.000634005 0 7.97582e-05)
(0.000886446 0 0.000113172)
(0.00121445 0 0.000157271)
(0.00163135 0 0.000214149)
(0.00214988 0 0.000285856)
(0.00278119 0 0.000374259)
(0.00353384 0 0.000480904)
(0.00441271 0 0.000606897)
(0.00541793 0 0.000752793)
(0.00654319 0 0.000918385)
(0.00777248 0 0.00110215)
(0.00907257 0 0.00129983)
(0.0103759 0 0.00150121)
(0.011548 0 0.00168375)
(0.0123635 0 0.00180689)
(0.0127666 0 0.00186589)
(0 0 0)
(3.37618e-07 0 4.09001e-08)
(8.25303e-07 0 1.00196e-07)
(1.6817e-06 0 2.05357e-07)
(3.23406e-06 0 3.98048e-07)
(5.99856e-06 0 7.44931e-07)
(1.07863e-05 0 1.35233e-06)
(1.88379e-05 0 2.38526e-06)
(3.19914e-05 0 4.09181e-06)
(5.28841e-05 0 6.83292e-06)
(8.51818e-05 0 1.11168e-05)
(0.000133823 0 1.7636e-05)
(0.000205258 0 2.7303e-05)
(0.000307656 0 4.1279e-05)
(0.000451044 0 6.09881e-05)
(0.000647337 0 8.81055e-05)
(0.000910216 0 0.00012451)
(0.00125481 0 0.000172186)
(0.00169719 0 0.000233075)
(0.00225357 0 0.000308865)
(0.00293939 0 0.000400741)
(0.00376811 0 0.000509114)
(0.00474977 0 0.000633367)
(0.00588909 0 0.000771653)
(0.00718246 0 0.000920749)
(0.00861265 0 0.00107592)
(0.0101384 0 0.0012306)
(0.0116732 0 0.00137531)
(0.0130484 0 0.00149462)
(0.0139883 0 0.00156472)
(0.0144429 0 0.00158686)
(0 0 0)
(3.30849e-07 0 4.5171e-08)
(8.09647e-07 0 1.10601e-07)
(1.65236e-06 0 2.26458e-07)
(3.18341e-06 0 4.38429e-07)
(5.91647e-06 0 8.19475e-07)
(1.06619e-05 0 1.48571e-06)
(1.86644e-05 0 2.6169e-06)
(3.17769e-05 0 4.48248e-06)
(5.26725e-05 0 7.47299e-06)
(8.50899e-05 0 1.21359e-05)
(0.000134102 0 1.92129e-05)
(0.000206392 0 2.96743e-05)
(0.000310508 0 4.47441e-05)
(0.000457066 0 6.59049e-05)
(0.00065886 0 9.48724e-05)
(0.000930825 0 0.000133524)
(0.00128981 0 0.000183766)
(0.00175413 0 0.000247334)
(0.00234279 0 0.000325508)
(0.00307449 0 0.000418775)
(0.00396612 0 0.000526434)
(0.00503087 0 0.00064624)
(0.00627549 0 0.000774128)
(0.00769612 0 0.000904162)
(0.00927152 0 0.00102882)
(0.0109512 0 0.00113972)
(0.0126328 0 0.00122853)
(0.0141237 0 0.00128702)
(0.0151198 0 0.00130773)
(0.0155802 0 0.00129624)
(0 0 0)
(3.25094e-07 0 4.91043e-08)
(7.96129e-07 0 1.20117e-07)
(1.62653e-06 0 2.45583e-07)
(3.13784e-06 0 4.74675e-07)
(5.84077e-06 0 8.85729e-07)
(1.05436e-05 0 1.60309e-06)
(1.84922e-05 0 2.81869e-06)
(3.15486e-05 0 4.81924e-06)
(5.24115e-05 0 8.01871e-06)
(8.4874e-05 0 1.29946e-05)
(0.000134114 0 2.05246e-05)
(0.000206996 0 3.16195e-05)
(0.00031237 0 4.75423e-05)
(0.000461322 0 6.98059e-05)
(0.000667342 0 0.000100134)
(0.000946352 0 0.00014037)
(0.00131653 0 0.000192318)
(0.00179788 0 0.0002575)
(0.00241144 0 0.000336825)
(0.00317805 0 0.000430173)
(0.00411669 0 0.00053593)
(0.00524189 0 0.000650532)
(0.00656031 0 0.000768162)
(0.00806561 0 0.000880769)
(0.0097308 0 0.000978709)
(0.0114959 0 0.00105232)
(0.0132462 0 0.00109454)
(0.0147753 0 0.00110367)
(0.0157694 0 0.00108627)
(0.0161938 0 0.00105191)
(0 0 0)
(3.20368e-07 0 5.27458e-08)
(7.84749e-07 0 1.28844e-07)
(1.60409e-06 0 2.62908e-07)
(3.09686e-06 0 5.07076e-07)
(5.76997e-06 0 9.44152e-07)
(1.04276e-05 0 1.70516e-06)
(1.83128e-05 0 2.9917e-06)
(3.12891e-05 0 5.1038e-06)
(5.20661e-05 0 8.47281e-06)
(8.44681e-05 0 1.36975e-05)
(0.000133737 0 2.15798e-05)
(0.000206859 0 3.31544e-05)
(0.000312886 0 4.97038e-05)
(0.00046323 0 7.27482e-05)
(0.000671862 0 0.000103996)
(0.000955389 0 0.000145241)
(0.00133289 0 0.000198182)
(0.0018255 0 0.00026416)
(0.00245549 0 0.000343799)
(0.00324497 0 0.000436547)
(0.00421378 0 0.000540165)
(0.00537653 0 0.000650222)
(0.00673844 0 0.000759751)
(0.00828955 0 0.000859319)
(0.00999658 0 0.000937909)
(0.011791 0 0.000985117)
(0.0135492 0 0.000995084)
(0.015059 0 0.00097145)
(0.016011 0 0.000931386)
(0.0163816 0 0.000889538)
(0 0 0)
(3.16759e-07 0 5.61576e-08)
(7.75677e-07 0 1.36922e-07)
(1.58528e-06 0 2.78691e-07)
(3.06065e-06 0 5.36077e-07)
(5.70392e-06 0 9.95488e-07)
(1.03129e-05 0 1.79316e-06)
(1.81227e-05 0 3.13794e-06)
(3.09891e-05 0 5.33939e-06)
(5.16168e-05 0 8.84059e-06)
(8.38327e-05 0 1.42536e-05)
(0.000132898 0 2.23932e-05)
(0.000205849 0 3.4304e-05)
(0.000311832 0 5.1271e-05)
(0.000462421 0 7.48039e-05)
(0.000671845 0 0.000106581)
(0.000957073 0 0.000148337)
(0.00133767 0 0.000201682)
(0.00183532 0 0.000267827)
(0.00247291 0 0.000347221)
(0.00327301 0 0.000439083)
(0.00425552 0 0.000540877)
(0.00543441 0 0.000647776)
(0.00681299 0 0.000752283)
(0.00837776 0 0.000844292)
(0.01009 0 0.000912056)
(0.0118746 0 0.000944767)
(0.0136026 0 0.000937471)
(0.0150613 0 0.000897784)
(0.0159532 0 0.000850146)
(0.0162575 0 0.00081039)
(0 0 0)
(3.14434e-07 0 5.94195e-08)
(7.69276e-07 0 1.44533e-07)
(1.57071e-06 0 2.93272e-07)
(3.03018e-06 0 5.6228e-07)
(5.64396e-06 0 1.04077e-06)
(1.02009e-05 0 1.86882e-06)
(1.79234e-05 0 3.26027e-06)
(3.06493e-05 0 5.5307e-06)
(5.10609e-05 0 9.1297e-06)
(8.29583e-05 0 1.4675e-05)
(0.000131575 0 2.29847e-05)
(0.000203918 0 3.51006e-05)
(0.00030912 0 5.22958e-05)
(0.000458753 0 7.60547e-05)
(0.000667068 0 0.000108014)
(0.000951084 0 0.000149851)
(0.00133044 0 0.000203102)
(0.00182689 0 0.000268904)
(0.00246334 0 0.000347637)
(0.00326223 0 0.000438485)
(0.00424303 0 0.000538909)
(0.00541882 0 0.000644107)
(0.00679132 0 0.000746592)
(0.00834457 0 0.000836156)
(0.0100366 0 0.00090074)
(0.0117888 0 0.000929093)
(0.0134701 0 0.000916357)
(0.0148712 0 0.000872562)
(0.0157081 0 0.000827405)
(0.0159674 0 0.00080367)
(0 0 0)
(3.13647e-07 0 6.26292e-08)
(7.6612e-07 0 1.51901e-07)
(1.56145e-06 0 3.07077e-07)
(3.00725e-06 0 5.86447e-07)
(5.5931e-06 0 1.08132e-06)
(1.00966e-05 0 1.93438e-06)
(1.77221e-05 0 3.36242e-06)
(3.02804e-05 0 5.68385e-06)
(5.04137e-05 0 9.35002e-06)
(8.18661e-05 0 1.49778e-05)
(0.000129795 0 2.33793e-05)
(0.000201107 0 3.55829e-05)
(0.000304806 0 5.28372e-05)
(0.000452303 0 7.65893e-05)
(0.000657649 0 0.000108425)
(0.000937617 0 0.000149963)
(0.00131154 0 0.000202682)
(0.0018008 0 0.000267686)
(0.00242781 0 0.000345373)
(0.00321441 0 0.000435033)
(0.00417936 0 0.000534353)
(0.00533486 0 0.000638881)
(0.00668175 0 0.00074155)
(0.00820334 0 0.000832476)
(0.00985737 0 0.000899529)
(0.0115658 0 0.000930642)
(0.0131991 0 0.000919497)
(0.014552 0 0.000875773)
(0.0153502 0 0.000832674)
(0.0155937 0 0.000819984)
(0 0 0)
(3.14742e-07 0 6.59029e-08)
(7.67001e-07 0 1.59294e-07)
(1.559e-06 0 3.20618e-07)
(2.99458e-06 0 6.09497e-07)
(5.55598e-06 0 1.11874e-06)
(1.00077e-05 0 1.99257e-06)
(1.75318e-05 0 3.44895e-06)
(2.99031e-05 0 5.80631e-06)
(4.97081e-05 0 9.51356e-06)
(8.06076e-05 0 1.51807e-05)
(0.000127638 0 2.36064e-05)
(0.000197538 0 3.57956e-05)
(0.000299078 0 5.29616e-05)
(0.000443358 0 7.65029e-05)
(0.000644027 0 0.000107946)
(0.000917338 0 0.000148847)
(0.00128198 0 0.000200634)
(0.00175854 0 0.000264398)
(0.00236852 0 0.000340607)
(0.00313274 0 0.000428738)
(0.00406895 0 0.000526841)
(0.00518852 0 0.000631017)
(0.00649204 0 0.000734907)
(0.00796369 0 0.000829316)
(0.00956404 0 0.00090237)
(0.0112205 0 0.000941067)
(0.012811 0 0.000936149)
(0.0141332 0 0.000893013)
(0.0148985 0 0.000844529)
(0.0151388 0 0.000824277)
(0 0 0)
(3.18197e-07 0 6.94092e-08)
(7.72989e-07 0 1.67096e-07)
(1.56535e-06 0 3.34612e-07)
(2.99566e-06 0 6.32699e-07)
(5.53857e-06 0 1.1552e-06)
(9.94408e-06 0 2.047e-06)
(1.73684e-05 0 3.52574e-06)
(2.9543e-05 0 5.90742e-06)
(4.89844e-05 0 9.63484e-06)
(7.92454e-05 0 1.5306e-05)
(0.000125201 0 2.36988e-05)
(0.000193358 0 3.57863e-05)
(0.000292158 0 5.27361e-05)
(0.000432256 0 7.58872e-05)
(0.000626704 0 0.000106696)
(0.000890992 0 0.000146646)
(0.00124284 0 0.000197112)
(0.00170167 0 0.000259173)
(0.00228763 0 0.000333369)
(0.00302007 0 0.000419393)
(0.00391533 0 0.000515696)
(0.00498365 0 0.000619024)
(0.00622535 0 0.000723907)
(0.00762596 0 0.000822217)
(0.00915032 0 0.000903027)
(0.0107355 0 0.00095351)
(0.0122771 0 0.000962642)
(0.0136056 0 0.00093125)
(0.0144314 0 0.000889784)
(0.0145337 0 0.000831949)
(-2.61463e-18 0 0)
(0.000938724 0 0)
(0.00179713 0 0)
(0.00259733 0 0)
(0.00313653 0 0)
(0.0033907 0 0)
(0.0033965 0 0)
(0.00321358 0 0)
(0.00290501 0 0)
(0.00252724 0 0)
(0.00212583 0 0)
(0.00173444 0 0)
(0.00137548 0 0)
(0.00106179 0 0)
(0.000798571 0 0)
(0.000585489 0 0)
(0.000418568 0 0)
(0.000291781 0 0)
(0.000198292 0 0)
(0.000131324 0 0)
(8.47132e-05 0 0)
(5.31929e-05 0 0)
(3.24895e-05 0 0)
(1.92876e-05 0 0)
(1.11196e-05 0 0)
(6.21876e-06 0 0)
(3.36743e-06 0 0)
(1.75546e-06 0 0)
(8.60012e-07 0 0)
(3.47606e-07 0 0)
(0 0 0)
(0.00107486 0 -0.00086058)
(0.00160456 0 -0.000715303)
(0.00231383 0 -0.000584653)
(0.00297336 0 -0.000436906)
(0.00340036 0 -0.000306844)
(0.00356977 0 -0.000203958)
(0.00351345 0 -0.000127353)
(0.00328621 0 -7.31264e-05)
(0.00294693 0 -3.6727e-05)
(0.00254862 0 -1.37851e-05)
(0.0021341 0 -4.80367e-07)
(0.00173485 0 6.30149e-06)
(0.00137166 0 8.94801e-06)
(0.0010561 0 9.1851e-06)
(0.000792482 0 8.18681e-06)
(0.000579826 0 6.69885e-06)
(0.000413727 0 5.15555e-06)
(0.000287885 0 3.77919e-06)
(0.000195303 0 2.65755e-06)
(0.000129124 0 1.80049e-06)
(8.31537e-05 0 1.17833e-06)
(5.21255e-05 0 7.46113e-07)
(3.17834e-05 0 4.57504e-07)
(1.88359e-05 0 2.71788e-07)
(1.08402e-05 0 1.56439e-07)
(6.05185e-06 0 8.72164e-08)
(3.27136e-06 0 4.70319e-08)
(1.70274e-06 0 2.43988e-08)
(8.33554e-07 0 1.18836e-08)
(3.37543e-07 0 4.76692e-09)
(0 0 0)
(0.00295139 0 -0.00135798)
(0.00328466 0 -0.00120467)
(0.00369338 0 -0.00100272)
(0.00402676 0 -0.000764287)
(0.00417043 0 -0.000543857)
(0.00411566 0 -0.000363561)
(0.00389016 0 -0.000226637)
(0.00353917 0 -0.000128673)
(0.0031117 0 -6.26254e-05)
(0.00265212 0 -2.10402e-05)
(0.00219619 0 2.88052e-06)
(0.00176982 0 1.47997e-05)
(0.00138953 0 1.91125e-05)
(0.00106371 0 1.90188e-05)
(0.000794328 0 1.67037e-05)
(0.000578766 0 1.35555e-05)
(0.000411473 0 1.03797e-05)
(0.000285391 0 7.58346e-06)
(0.000193044 0 5.32062e-06)
(0.000127287 0 3.59891e-06)
(8.17636e-05 0 2.35253e-06)
(5.11317e-05 0 1.48829e-06)
(3.11061e-05 0 9.11969e-07)
(1.83938e-05 0 5.41482e-07)
(1.0563e-05 0 3.11544e-07)
(5.88479e-06 0 1.73633e-07)
(3.17476e-06 0 9.36125e-08)
(1.64971e-06 0 4.85632e-08)
(8.07103e-07 0 2.36671e-08)
(3.27614e-07 0 9.51668e-09)
(0 0 0)
(0.0053669 0 -0.00157262)
(0.00549804 0 -0.00142787)
(0.0056003 0 -0.0012109)
(0.00554777 0 -0.000938007)
(0.00532405 0 -0.000673937)
(0.00496216 0 -0.000451166)
(0.00449615 0 -0.000278655)
(0.00396401 0 -0.0001539)
(0.00340382 0 -6.95149e-05)
(0.00284922 0 -1.66509e-05)
(0.00232663 0 1.32111e-05)
(0.00185443 0 2.73759e-05)
(0.00144327 0 3.1612e-05)
(0.00109709 0 3.01636e-05)
(0.000814575 0 2.59445e-05)
(0.000590739 0 2.0807e-05)
(0.000418362 0 1.58181e-05)
(0.000289241 0 1.15041e-05)
(0.000195129 0 8.04764e-06)
(0.000128377 0 5.43315e-06)
(8.23137e-05 0 3.54729e-06)
(5.13984e-05 0 2.24255e-06)
(3.12301e-05 0 1.37369e-06)
(1.8449e-05 0 8.15569e-07)
(1.05866e-05 0 4.69309e-07)
(5.89462e-06 0 2.61646e-07)
(3.1789e-06 0 1.41136e-07)
(1.65165e-06 0 7.3273e-08)
(8.0825e-07 0 3.57564e-08)
(3.28264e-07 0 1.44167e-08)
(0 0 0)
(0.00798151 0 -0.00154546)
(0.0079245 0 -0.00142023)
(0.00772823 0 -0.00121768)
(0.00728506 0 -0.000951968)
(0.006672 0 -0.000685626)
(0.00597161 0 -0.000455225)
(0.00523197 0 -0.000273908)
(0.00448836 0 -0.000141766)
(0.0037699 0 -5.25093e-05)
(0.00309983 0 2.62088e-06)
(0.00249489 0 3.25825e-05)
(0.0019652 0 4.53186e-05)
(0.00151473 0 4.72312e-05)
(0.00114222 0 4.30902e-05)