/*--------------------------------*- C++ -*----------------------------------*\
| =========                 |                                                 |
| \\      /  F ield         | OpenFOAM: The Open Source CFD Toolbox           |
|  \\    /   O peration     | Version:  2012                                  |
|   \\  /    A nd           | Website:  www.openfoam.com                      |
|    \\/     M anipulation  |                                                 |
\*---------------------------------------------------------------------------*/
FoamFile
{
    version     2.0;
    format      ascii;
    class       volVectorField;
    location    "0.2";
    object      U;
}
// * * * * * * * * * * * * * * * * * * * * * * * * * * * * * * * * * * * * * //

dimensions      [0 1 -1 0 0 0 0];


internalField   nonuniform List<vector> 
2790
(
(9.95425 0 0.0224044)
(9.86288 0 0.0228808)
(9.7709 0 0.0238183)
(9.6766 0 0.0252184)
(9.57838 0 0.0270975)
(9.47466 0 0.0294858)
(9.36386 0 0.0324218)
(9.24433 0 0.0359796)
(9.11437 0 0.0402013)
(8.97212 1.49321e-25 0.0451868)
(8.8156 0 0.0510291)
(8.64267 0 0.0578335)
(8.451 8.66936e-25 0.0657104)
(8.23808 0 0.0748133)
(8.00122 0 0.0852446)
(7.73759 -2.55622e-24 0.0971393)
(7.44427 0 0.11059)
(7.11831 0 0.125733)
(6.75694 0 0.142518)
(6.35768 0 0.160944)
(5.91861 -1.37722e-22 0.180862)
(5.43865 -1.22826e-22 0.202003)
(4.91783 -4.68155e-23 0.223984)
(4.35754 -5.14272e-23 0.2463)
(3.76062 0 0.26838)
(3.13124 2.65131e-21 0.289677)
(2.47448 4.59442e-25 0.309819)
(1.79523 -1.51906e-21 0.328782)
(1.09642 -1.85137e-21 0.347171)
(0.376846 -6.3205e-22 0.369376)
(9.95449 0 0.0670973)
(9.8636 0 0.0685219)
(9.7721 0 0.0713252)
(9.67833 0 0.0755115)
(9.58068 0 0.0811299)
(9.4776 0 0.0882699)
(9.36753 0 0.0970585)
(9.24884 3.55975e-25 0.107667)
(9.11983 0 0.120298)
(8.9787 -2.36771e-22 0.135192)
(8.82348 -4.67112e-22 0.152656)
(8.65204 -2.31303e-22 0.17299)
(8.46209 -2.21392e-22 0.196557)
(8.25114 -2.18407e-22 0.22374)
(8.01651 -2.12196e-22 0.254927)
(7.75536 -7.67448e-24 0.290503)
(7.46476 1.97592e-22 0.330813)
(7.1417 -3.96103e-23 0.376071)
(6.78332 0 0.426423)
(6.38698 0 0.481723)
(5.95058 1.31707e-21 0.541571)
(5.47277 1.34976e-21 0.605204)
(4.95331 -1.41566e-22 0.671452)
(4.39328 -1.55712e-22 0.738801)
(3.79535 6.08065e-21 0.805465)
(3.16369 5.71286e-21 0.869665)
(2.50371 0 0.929983)
(1.82136 -8.29733e-22 0.985881)
(1.12194 -4.38211e-22 1.03824)
(0.409884 2.10512e-21 1.09231)
(9.95496 0 0.111445)
(9.86501 0 0.113804)
(9.7745 0 0.118445)
(9.68177 0 0.125376)
(9.58526 0 0.134676)
(9.48346 0 0.146493)
(9.37483 0 0.161037)
(9.2578 1.18126e-24 0.178587)
(9.13071 6.59763e-25 0.199482)
(8.99178 7.41301e-25 0.224126)
(8.83913 -3.34511e-24 0.252996)
(8.67065 -3.78908e-24 0.286626)
(8.48412 0 0.325607)
(8.27709 -1.95744e-23 0.370579)
(8.04689 0 0.4222)
(7.79069 1.80831e-22 0.481143)
(7.50552 -1.40867e-22 0.547965)
(7.18828 -4.46304e-22 0.623152)
(6.83591 1.44741e-21 0.706906)
(6.44551 1.36472e-21 0.799124)
(6.01457 0 0.899195)
(5.54123 2.12035e-22 1.00592)
(5.02465 0 1.11741)
(4.46536 7.54626e-21 1.23106)
(3.86551 5.96248e-21 1.34372)
(3.22917 -1.02454e-20 1.45201)
(2.56226 -9.89936e-21 1.55283)
(1.87226 1.09822e-20 1.64403)
(1.16771 1.4375e-20 1.72519)
(0.457864 2.69792e-21 1.80194)
(9.95566 0 0.15522)
(9.86712 0 0.15849)
(9.77806 0 0.164925)
(9.68688 0 0.174531)
(9.59207 0 0.187419)
(9.49217 0 0.20379)
(9.38569 0 0.223934)
(9.27112 1.64214e-24 0.248233)
(9.14686 9.16767e-25 0.277157)
(9.01122 0 0.311265)
(8.86237 -4.64498e-24 0.351213)
(8.6983 0 0.397746)
(8.51685 0 0.451693)
(8.31564 -5.43168e-23 0.513965)
(8.09206 -2.14193e-22 0.585474)
(7.84328 -2.42842e-22 0.667213)
(7.56629 8.02475e-23 0.760028)
(7.25785 7.68376e-22 0.864685)
(6.91467 7.3203e-22 0.981582)
(6.53344 0 1.11073)
(6.11105 0 1.25147)
(5.64492 0 1.40227)
(5.13324 0 1.56062)
(4.57555 0 1.72281)
(3.97316 0 1.88413)
(3.32968 1.11428e-20 2.03912)
(2.65138 1.39465e-20 2.18216)
(1.94736 6.3956e-21 2.30839)
(1.22954 6.71216e-21 2.41461)
(0.512034 4.97317e-21 2.50516)
(9.95658 0 0.198201)
(9.8699 0 0.202351)
(9.78276 0 0.210516)
(9.69362 0 0.222704)
(9.60105 0 0.239049)
(9.50363 0 0.259805)
(9.39998 -9.43828e-25 0.285334)
(9.28864 2.09136e-24 0.316117)
(9.1681 0 0.352747)
(9.03678 0 0.395927)
(8.89293 0 0.446488)
(8.73466 0 0.505382)
(8.55991 0 0.57367)
(8.36639 -6.89636e-23 0.652515)
(8.15157 0 0.743185)
(7.91269 -8.94036e-23 0.846882)
(7.64665 -9.11386e-22 0.964927)
(7.35012 -2.33437e-21 1.09833)
(7.0195 -1.63572e-25 1.24791)
(6.65102 1.40793e-21 1.41389)
(6.24082 0 1.59576)
(5.78527 0 1.79192)
(5.28128 -8.9193e-21 1.99934)
(4.72688 -7.97722e-21 2.21336)
(4.12193 -2.04706e-21 2.42753)
(3.46894 1.15692e-20 2.63379)
(2.77404 4.43629e-21 2.82317)
(2.04771 0 2.98668)
(1.30514 -1.31841e-21 3.117)
(0.565438 6.80601e-22 3.21541)
(9.95771 0 0.240175)
(9.87332 0 0.245166)
(9.78854 0 0.254983)
(9.70192 0 0.269631)
(9.61209 -1.91371e-24 0.28927)
(9.51774 0 0.314197)
(9.41755 -2.28145e-24 0.344842)
(9.31017 3.78822e-24 0.381774)
(9.19421 2.81597e-24 0.425701)
(9.06818 6.31474e-24 0.477458)
(8.93047 -1.42287e-23 0.538045)
(8.77932 0 0.608605)
(8.6128 -2.27976e-22 0.690437)
(8.42878 -2.64592e-22 0.784945)
(8.22483 2.17706e-22 0.893709)
(7.99824 -6.35117e-22 1.01837)
(7.74598 -1.22567e-22 1.1605)
(7.46459 7.90239e-22 1.32166)
(7.15016 0 1.50313)
(6.79842 0 1.70559)
(6.40466 0 1.92895)
(5.96398 0 2.17183)
(5.47159 0 2.43108)
(4.92342 0 2.70127)
(4.31699 -2.50973e-21 2.97426)
(3.65279 0 3.23906)
(2.9358 -1.40784e-20 3.48226)
(2.17715 -7.07946e-21 3.68932)
(1.3952 8.64453e-21 3.84695)
(0.614202 2.49639e-21 3.95133)
(9.95905 0 0.280937)
(9.87735 0 0.286722)
(9.79535 0 0.298097)
(9.71169 0 0.315064)
(9.62509 -2.23487e-24 0.337801)
(9.53434 0 0.366645)
(9.43822 -2.66024e-24 0.402084)
(9.33549 2.94212e-24 0.444762)
(9.22488 3.27788e-24 0.495504)
(9.10504 7.34421e-24 0.555245)
(8.97453 -3.30685e-23 0.625149)
(8.83173 0 0.706537)
(8.67491 0 0.800919)
(8.50208 0 0.909993)
(8.31102 0 1.0356)
(8.09912 1.24617e-22 1.17978)
(7.86343 8.32488e-22 1.3446)
(7.60046 8.04632e-22 1.53212)
(7.30611 3.68038e-22 1.74424)
(6.97558 -2.95227e-21 1.98241)
(6.60328 2.79212e-21 2.24725)
(6.18292 5.22953e-21 2.53808)
(5.7076 9.63468e-21 2.85216)
(5.17044 1.38651e-23 3.18383)
(4.56561 -7.67679e-21 3.52361)
(3.89002 0 3.85744)
(3.14587 -1.03805e-20 4.16661)
(2.34368 -1.52467e-20 4.42909)
(1.50454 -2.97237e-23 4.623)
(0.658823 1.58829e-21 4.73656)
(9.96058 0 0.320296)
(9.88196 0 0.32682)
(9.80313 0 0.339645)
(9.72284 0 0.358769)
(9.63992 0 0.384381)
(9.55326 0 0.41685)
(9.46175 -1.51088e-24 0.456715)
(9.3643 0 0.504689)
(9.25977 0 0.561667)
(9.14696 8.31664e-24 0.628721)
(9.02459 -1.8704e-23 0.707122)
(8.89129 0 0.798365)
(8.74548 -4.77978e-23 0.904157)
(8.58543 0 1.02645)
(8.40913 0 1.16738)
(8.21421 -1.40399e-22 1.32939)
(7.99785 0 1.51504)
(7.75665 0 1.72704)
(7.48643 4.15394e-22 1.96803)
(7.18202 0 2.24046)
(6.83708 3.96706e-21 2.54612)
(6.44383 -3.94052e-21 2.88556)
(5.99307 -5.06465e-21 3.25726)
(5.47442 -7.68136e-21 3.65627)
(4.87734 -1.51983e-23 4.07272)
(4.19312 1.2139e-20 4.48993)
(3.41856 7.75515e-21 4.88327)
(2.56098 0 5.22086)
(1.64322 -5.54035e-21 5.46819)
(0.703232 -1.49913e-22 5.60054)
(9.96228 0 0.358071)
(9.8871 0 0.365275)
(9.8118 0 0.379431)
(9.73527 0 0.400529)
(9.65643 0 0.428768)
(9.57431 0 0.46454)
(9.48792 0 0.508421)
(9.3963 0 0.561178)
(9.29848 0 0.62377)
(9.19342 9.22531e-24 0.697379)
(9.08008 0 0.78336)
(8.95725 0 0.883359)
(8.82364 -5.28322e-23 0.999265)
(8.6778 1.19782e-22 1.13322)
(8.51797 -2.25464e-22 1.28772)
(8.34213 -3.75615e-22 1.46552)
(8.14772 -3.52616e-22 1.66973)
(7.93159 8.39657e-22 1.90372)
(7.68967 8.14024e-22 2.17108)
(7.4167 -2.61478e-21 2.47544)
(7.10578 -3.13208e-22 2.82017)
(6.74793 -1.35443e-21 3.20777)
(6.33163 -3.81256e-21 3.63894)
(5.84254 -4.93442e-21 4.11094)
(5.26406 8.86347e-21 4.61521)
(4.57918 6.61189e-21 5.1341)
(3.77507 0 5.63749)
(2.85116 -1.60959e-22 6.08121)
(1.82899 2.31335e-21 6.4116)
(0.755761 2.04251e-21 6.58207)
(9.96415 0 0.394099)
(9.89272 0 0.401916)
(9.82128 0 0.417274)
(9.74885 0 0.440151)
(9.67446 0 0.470746)
(9.59727 0 0.50947)
(9.51643 -3.68433e-24 0.556922)
(9.43114 0 0.613911)
(9.34058 0 0.681446)
(9.24392 0 0.760765)
(9.14031 2.25695e-23 0.853332)
(9.02882 0 0.960881)
(8.90843 0 1.08545)
(8.77799 9.30179e-27 1.22937)
(8.63614 -2.28591e-22 1.39539)
(8.48125 -4.48981e-22 1.58662)
(8.31117 -6.01582e-22 1.80666)
(8.12321 0 2.05956)
(7.91369 0 2.34991)
(7.6776 -1.1327e-21 2.6827)
(7.40802 0 3.06324)
(7.09528 -3.00196e-21 3.49668)
(6.726 1.68345e-21 3.98715)
(6.28199 -3.83381e-21 4.5361)
(5.7396 -2.42349e-21 5.13919)
(5.07048 1.22323e-21 5.78135)
(4.24615 0 6.42977)
(3.24916 -3.28476e-21 7.02692)
(2.09188 -2.14137e-21 7.49074)
(0.831628 -8.19037e-22 7.73498)
(9.96616 0 0.428229)
(9.89877 0 0.436591)
(9.83149 0 0.453013)
(9.76345 0 0.477458)
(9.69384 0 0.510125)
(9.62192 0 0.551427)
(9.54701 -3.9825e-24 0.60198)
(9.46845 0 0.662612)
(9.38561 0 0.734368)
(9.29786 0 0.818522)
(9.20458 2.4244e-23 0.916598)
(9.10511 0 1.0304)
(8.99875 0 1.16207)
(8.88471 -2.77835e-22 1.31408)
(8.76206 0 1.48937)
(8.62964 0 1.69136)
(8.48594 0 1.92404)
(8.32886 4.62926e-22 2.19214)
(8.15551 5.28087e-22 2.50114)
(7.96161 -1.20668e-21 2.85751)
(7.74087 0 3.26867)
(7.48392 0 3.74293)
(7.17669 0 4.28908)
(6.79827 -3.51621e-21 4.91502)
(6.3182 -2.67261e-21 5.62476)
(5.69449 -1.8826e-21 6.41218)
(4.87521 -1.91907e-22 7.2496)
(3.81048 4.02196e-22 8.07063)
(2.48361 1.43826e-21 8.75507)
(0.954183 -2.70034e-21 9.14219)
(9.96829 0 0.460329)
(9.90519 0 0.469163)
(9.84233 0 0.486505)
(9.77894 0 0.512302)
(9.71437 0 0.546741)
(9.64802 0 0.590232)
(9.57934 0 0.643393)
(9.50785 0 0.707058)
(9.43309 0 0.782281)
(9.35464 0 0.870351)
(9.27213 0 0.972817)
(9.18519 0 1.09152)
(9.09345 0 1.22863)
(8.9965 -9.51049e-27 1.38674)
(8.89394 -2.35427e-22 1.56887)
(8.78515 -4.65096e-22 1.77866)
(8.66935 -2.29484e-22 2.02041)
(8.54533 2.59395e-22 2.29935)
(8.41126 1.08274e-22 2.62176)
(8.26416 -1.26494e-21 2.99537)
(8.09931 1.66287e-21 3.42968)
(7.90893 0 3.93634)
(7.68031 -1.50753e-21 4.52946)
(7.39247 -7.13352e-22 5.22547)
(7.0111 -1.27809e-21 6.04143)
(6.48141 6.34631e-22 6.98972)
(5.72131 -1.42961e-21 8.06392)
(4.62468 -9.91157e-22 9.20844)
(3.10013 1.08735e-21 10.2676)
(1.17191 -1.73849e-21 10.9458)
(9.97054 0 0.490286)
(9.91195 0 0.499518)
(9.8537 0 0.517631)
(9.79519 0 0.544553)
(9.73589 0 0.580458)
(9.67532 0 0.62574)
(9.61311 0 0.681006)
(9.54893 0 0.747078)
(9.4825 -1.09143e-23 0.824997)
(9.41363 0 0.916042)
(9.34218 -2.7027e-23 1.02175)
(9.26807 0 1.14395)
(9.19129 0 1.28481)
(9.11187 -9.63246e-27 1.44692)
(9.02987 -6.64001e-23 1.63336)
(8.94538 -4.73579e-22 1.84781)
(8.85841 -6.77024e-22 2.09475)
(8.76881 4.64266e-22 2.37968)
(8.67614 4.59367e-22 2.70941)
(8.57927 1.306e-21 3.09257)
(8.4759 -3.0044e-22 3.54026)
(8.36152 2.70687e-25 4.06698)
(8.22745 -1.98311e-21 4.69197)
(8.05727 -2.85831e-21 5.44078)
(7.81982 1.97637e-21 6.34701)
(7.4561 3.95493e-21 7.45194)
(6.85704 0 8.79639)
(5.83554 4.98493e-21 10.3863)
(4.13129 3.5483e-21 12.0908)
(1.58012 -2.11275e-21 13.4232)
(9.97287 0 0.518001)
(9.91896 0 0.527555)
(9.86552 0 0.54629)
(9.81205 0 0.574111)
(9.75818 0 0.611171)
(9.70358 0 0.657842)
(9.648 -4.72844e-24 0.714705)
(9.59128 0 0.782553)
(9.53334 -2.28184e-23 0.862395)
(9.47418 0 0.955469)
(9.41393 -2.77314e-22 1.06326)
(9.35277 -4.95141e-22 1.18755)
(9.29105 -1.75586e-22 1.33045)
(9.22922 -2.44311e-22 1.49446)
(9.16789 3.55681e-22 1.68261)
(9.10781 3.22087e-22 1.89851)
(9.04986 9.83934e-22 2.14659)
(8.99509 9.52508e-22 2.43235)
(8.94461 0 2.76273)
(8.89955 1.32878e-21 3.14668)
(8.8608 -1.51868e-21 3.59605)
(8.82849 3.74283e-21 4.12696)
(8.80092 5.74377e-21 4.76197)
(8.77199 0 5.53372)
(8.72516 0 6.49095)
(8.61858 8.15753e-22 7.70806)
(8.3482 0 9.29832)
(7.66075 0 11.4184)
(5.99018 -1.50295e-21 14.1909)
(2.41977 -9.10731e-22 17.2025)
(9.97527 0 0.543398)
(9.92619 0 0.553198)
(9.87767 0 0.572404)
(9.82939 0 0.600897)
(9.78107 0 0.638803)
(9.73253 0 0.686462)
(9.68367 -4.92506e-24 0.744418)
(9.6345 0 0.813419)
(9.5851 -1.18331e-23 0.894422)
(9.53567 5.22896e-23 0.988591)
(9.48657 0 1.09734)
(9.43828 0 1.22233)
(9.39147 7.22108e-23 1.36558)
(9.34701 4.09117e-22 1.52944)
(9.30601 4.27788e-22 1.71673)
(9.26987 -4.08036e-22 1.93088)
(9.24036 0 2.17606)
(9.21973 0 2.45744)
(9.21068 1.95114e-21 2.78163)
(9.21671 3.90536e-21 3.15715)
(9.24222 2.83973e-21 3.59547)
(9.29277 3.93963e-21 4.11239)
(9.37544 -3.96024e-21 4.7306)
(9.49913 -8.06462e-21 5.48418)
(9.67398 0 6.42749)
(9.90714 -1.61925e-21 7.65316)
(10.181 -2.4703e-22 9.33388)
(10.3492 0 11.8268)
(9.64848 -3.38146e-21 15.9625)
(4.40568 -1.26535e-21 23.9006)
(0.320557 -9.73897e-22 -0.303546)
(0.968636 1.64496e-21 -0.307636)
(1.62988 2.76507e-21 -0.303789)
(2.28935 1.94013e-21 -0.294581)
(2.93497 3.73026e-21 -0.280932)
(3.55752 1.01346e-25 -0.263885)
(4.15001 -9.31309e-22 -0.244521)
(4.70739 4.9845e-22 -0.223854)
(5.22637 -8.30062e-22 -0.202745)
(5.70522 -3.02035e-22 -0.181924)
(6.14349 0 -0.161932)
(6.54182 8.75287e-23 -0.143146)
(6.90163 9.13422e-23 -0.125801)
(7.22495 0 -0.110025)
(7.51415 0 -0.0958186)
(7.77181 5.49385e-25 -0.0831485)
(8.00053 0 -0.0718872)
(8.20289 -2.04781e-25 -0.0619797)
(8.3813 1.75923e-25 -0.0532335)
(8.53802 0 -0.0455479)
(8.67507 -6.41094e-26 -0.0387834)
(8.79425 -5.42503e-26 -0.0328158)
(8.89714 0 -0.0275286)
(8.98505 0 -0.0228179)
(9.05909 0 -0.0185828)
(9.1201 0 -0.0147349)
(9.16871 0 -0.0111892)
(9.20529 0 -0.0078645)
(9.22993 0 -0.00468108)
(9.24244 0 -0.00155722)
(0.319316 7.68967e-22 -0.925089)
(0.9802 -3.81164e-22 -0.930344)
(1.65052 -4.8745e-21 -0.916689)
(2.31659 7.57528e-22 -0.887379)
(2.96684 0 -0.845107)
(3.59225 -3.04651e-21 -0.792944)
(4.18603 -3.70522e-21 -0.734041)
(4.74334 -2.00958e-21 -0.671398)
(5.26115 -2.22881e-21 -0.607639)
(5.738 -5.78648e-23 -0.544877)
(6.17374 0 -0.484742)
(6.56923 2.83579e-24 -0.428338)
(6.92611 -1.83334e-22 -0.376343)
(7.24655 -1.91816e-22 -0.329052)
(7.53304 0 -0.286539)
(7.78821 4.93111e-24 -0.248592)
(8.01469 0 -0.214995)
(8.21508 6.12377e-25 -0.185313)
(8.39178 5.26515e-25 -0.159193)
(8.54702 -4.50451e-25 -0.13622)
(8.68281 1.91696e-25 -0.116)
(8.80093 -1.62354e-25 -0.0981602)
(8.90293 0 -0.0823508)
(8.99011 0 -0.0682698)
(9.06355 0 -0.0556014)
(9.12409 0 -0.0440915)
(9.17233 0 -0.0334836)
(9.20863 0 -0.0235356)
(9.2331 0 -0.0140093)
(9.24552 0 -0.00466044)
(0.319204 3.73293e-21 -1.57167)
(1.00482 6.49259e-21 -1.57283)
(1.69343 -4.543e-21 -1.54418)
(2.37278 -6.88419e-21 -1.49043)
(3.03222 -5.16685e-21 -1.41593)
(3.66324 -7.86037e-24 -1.32564)
(4.25939 7.23427e-21 -1.22479)
(4.81629 4.08366e-21 -1.11833)
(5.33148 4.73438e-21 -1.01059)
(5.80409 -9.60037e-23 -0.90507)
(6.23453 0 -0.804345)
(6.62419 0 -0.710185)
(6.9751 -7.38547e-22 -0.623599)
(7.28971 -7.71854e-22 -0.54504)
(7.57073 0 -0.474493)
(7.8209 -5.44028e-24 -0.411619)
(8.0429 2.12895e-22 -0.355962)
(8.23935 2.24181e-22 -0.306843)
(8.41262 -3.48598e-24 -0.263635)
(8.56492 -1.49253e-24 -0.225625)
(8.69821 6.35573e-25 -0.192169)
(8.81422 0 -0.162647)
(8.91446 0 -0.136485)
(9.00018 0 -0.113158)
(9.07244 0 -0.0921803)
(9.13203 0 -0.0731094)
(9.17953 0 -0.0555273)
(9.2153 0 -0.0390341)
(9.2394 0 -0.0232362)
(9.25164 0 -0.00773021)
(0.326462 -4.67771e-21 -2.25551)
(1.04653 -6.6883e-21 -2.24443)
(1.76182 -6.16091e-21 -2.19394)
(2.46094 -6.72691e-21 -2.1095)
(3.13403 0 -1.99713)
(3.77308 6.42631e-21 -1.86385)
(4.3722 7.43845e-21 -1.71707)
(4.92782 0 -1.56379)
(5.43842 -4.31165e-21 -1.40996)
(5.90408 -5.13859e-21 -1.26037)
(6.32614 -1.34001e-21 -1.11841)
(6.70671 -2.84097e-21 -0.986325)
(7.04844 -2.23911e-21 -0.865347)
(7.35419 -7.98708e-22 -0.755878)
(7.62693 -2.01886e-22 -0.657799)
(7.86957 -2.23401e-22 -0.570591)
(8.08487 -1.30477e-23 -0.493414)
(8.27542 5.62585e-24 -0.425402)
(8.44359 -4.83496e-24 -0.365561)
(8.59152 -1.03515e-24 -0.312935)
(8.72109 0 -0.266609)
(8.83398 -7.46577e-25 -0.225718)
(8.9316 0 -0.189468)
(9.01517 0 -0.157128)
(9.08567 0 -0.128033)
(9.14385 0 -0.101568)
(9.19026 0 -0.0771568)
(9.22522 0 -0.0542472)
(9.2488 0 -0.0322956)
(9.26077 0 -0.0107447)
(0.347537 -4.96193e-21 -2.98496)
(1.11051 -6.9724e-21 -2.9537)
(1.86062 0 -2.87318)
(2.58593 2.33721e-21 -2.74983)
(3.27679 0 -2.59185)
(3.92567 5.67382e-21 -2.40878)
(4.52758 7.71333e-21 -2.21055)
(5.08021 -3.88731e-21 -2.00627)
(5.58344 -4.73846e-21 -1.80357)
(6.0388 -1.70506e-22 -1.60823)
(6.44884 -3.77143e-23 -1.42428)
(6.81673 0 -1.25419)
(7.14582 -2.90759e-23 -1.09917)
(7.43954 -8.13119e-22 -0.959462)
(7.70116 -7.71293e-22 -0.834648)
(7.93375 0 -0.723863)
(8.14015 -1.65571e-23 -0.625998)
(8.32292 2.06032e-22 -0.539801)
(8.48437 4.0906e-38 -0.464001)
(8.62654 -2.2309e-22 -0.397339)
(8.75122 2.23998e-24 -0.338656)
(8.86 -9.48784e-25 -0.286831)
(8.9542 -2.37017e-22 -0.240866)
(9.03493 -2.39153e-22 -0.199823)
(9.10312 0 -0.162882)
(9.15946 0 -0.129253)
(9.20444 0 -0.0982137)
(9.23835 0 -0.0690658)
(9.26122 0 -0.0411235)
(9.27285 0 -0.0136827)
(0.387007 -2.65039e-21 -3.76806)
(1.20259 -8.84316e-21 -3.70922)
(1.99649 -1.41982e-20 -3.58902)
(2.75468 0 -3.41629)
(3.46705 0 -3.20246)
(4.12663 -8.30455e-21 -2.96063)
(4.72991 -8.63763e-21 -2.70377)
(5.27652 -3.9632e-21 -2.44334)
(5.76844 -9.55904e-21 -2.1884)
(6.20918 -5.16328e-21 -1.9455)
(6.6029 -5.68874e-23 -1.71892)
(6.95402 0 -1.51098)
(7.26678 -1.04947e-22 -1.32259)
(7.54516 0 -1.15358)
(7.79277 5.30555e-23 -1.00309)
(8.01281 -3.7821e-22 -0.869867)
(8.20816 -3.94764e-22 -0.752331)
(8.38132 -1.71638e-23 -0.648922)
(8.53447 -1.47578e-23 -0.558024)
(8.66957 1.26463e-23 -0.478087)
(8.78827 5.3935e-24 -0.407681)
(8.89201 0 -0.345473)
(8.98201 0 -0.290253)
(9.05928 0 -0.240919)
(9.12464 0 -0.196465)
(9.17871 -1.03158e-24 -0.155963)
(9.22194 0 -0.118547)
(9.25456 0 -0.083386)
(9.27658 0 -0.0496589)
(9.28777 0 -0.0165242)
(0.44801 1.91217e-21 -4.61565)
(1.3295 9.5776e-22 -4.52143)
(2.17848 0 -4.34952)
(2.97693 0 -4.11345)
(3.71386 6.37417e-21 -3.83025)
(4.38346 1.49864e-20 -3.5181)
(4.98473 8.49736e-21 -3.19382)
(5.5204 0 -2.87121)
(5.99551 5.35826e-21 -2.56045)
(6.4161 5.56232e-21 -2.26833)
(6.78838 -1.32258e-23 -1.99878)
(7.11813 9.27522e-23 -1.75358)
(7.41057 -2.61179e-26 -1.53292)
(7.67018 -8.12176e-22 -1.33599)
(7.90086 -8.36591e-22 -1.16131)
(8.10592 5.32571e-23 -1.007)
(8.28814 9.2144e-23 -0.871149)
(8.44993 0 -0.751724)
(8.59336 -1.71062e-23 -0.646748)
(8.72015 7.33368e-24 -0.554442)
(8.83184 3.1296e-24 -0.473093)
(8.92969 0 -0.401162)
(9.01477 0 -0.337252)
(9.08798 0 -0.280095)
(9.15003 0 -0.228533)
(9.20146 -1.20061e-24 -0.181506)
(9.24264 0 -0.138017)
(9.27374 0 -0.0971104)
(9.29476 0 -0.0578445)
(9.30545 0 -0.0192501)
(0.533829 4.2557e-21 -5.54393)
(1.50047 7.10993e-21 -5.40483)
(2.41948 0 -5.16435)
(3.26645 1.0267e-21 -4.84547)
(4.0295 -9.4822e-22 -4.47476)
(4.70573 0 -4.07769)
(5.29867 9.73881e-22 -3.6756)
(5.81591 -4.93926e-21 -3.28432)
(6.26665 -2.66134e-21 -2.91439)
(6.66017 2.8244e-21 -2.57194)
(7.00494 2.39042e-22 -2.25981)
(7.30822 -1.04575e-22 -1.9786)
(7.57607 8.93644e-22 -1.7274)
(7.81343 8.27398e-22 -1.50443)
(8.02434 1.38226e-22 -1.30737)
(8.21202 -2.17375e-22 -1.13381)
(8.37916 -3.39817e-22 -0.981227)
(8.52799 -2.25737e-22 -0.847163)
(8.66033 0 -0.729377)
(8.77771 0 -0.625743)
(8.88145 0 -0.53435)
(8.97263 5.99829e-24 -0.453458)
(9.05215 0 -0.381501)
(9.12077 1.04883e-24 -0.317066)
(9.17908 0 -0.258863)
(9.22751 0 -0.205707)
(9.26636 0 -0.156491)
(9.29575 0 -0.110149)
(9.31563 0 -0.0656273)
(9.32575 0 -0.0218429)
(0.646577 -1.19814e-21 -6.57911)
(1.72915 8.4454e-22 -6.38066)
(2.73903 0 -6.04543)
(3.64293 1.18977e-21 -5.61524)
(4.43043 -1.05359e-21 -5.13242)
(5.10531 0 -4.63238)
(5.67925 -4.6077e-21 -4.14096)
(6.16702 -5.23829e-21 -3.67483)
(6.58335 0 -3.24335)
(6.94128 3.0147e-22 -2.85063)
(7.25159 2.64192e-22 -2.49742)
(7.52286 -1.82427e-21 -2.18242)
(7.76174 -1.4428e-21 -1.90317)
(7.97339 5.97251e-22 -1.65661)
(8.16172 5.84324e-22 -1.4396)
(8.32984 2.20494e-22 -1.24888)
(8.48015 2.81659e-22 -1.08142)
(8.61456 4.94118e-23 -0.934374)
(8.73461 2.31206e-22 -0.805162)
(8.84161 2.34038e-22 -0.69139)
(8.93657 7.81707e-24 -0.590967)
(9.02039 6.64028e-24 -0.501966)
(9.09379 1.39828e-24 -0.422682)
(9.15735 1.16302e-24 -0.351578)
(9.21153 0 -0.287249)
(9.25665 1.51099e-24 -0.228409)
(9.29293 0 -0.173854)
(9.32043 0 -0.12242)
(9.33906 0 -0.0729593)
(9.34854 0 -0.0242868)
(0.789781 3.43802e-22 -7.76725)
(2.03925 1.98016e-22 -7.48121)
(3.16825 0 -7.00655)
(4.13513 -6.79695e-22 -6.4218)
(4.93829 -5.74792e-22 -5.79393)
(5.59614 -4.75659e-21 -5.1698)
(6.13399 -5.21028e-21 -4.57771)
(6.57681 8.52831e-22 -4.0322)
(6.94593 -7.48307e-22 -3.53883)
(7.25822 1.86553e-21 -3.09783)
(7.52641 1.02243e-21 -2.70663)
(7.75987 8.2178e-22 -2.36129)
(7.96544 1.49589e-21 -2.05739)
(8.14805 -2.42097e-22 -1.79048)
(8.31132 -1.04455e-21 -1.55631)
(8.45793 -3.04958e-22 -1.35092)
(8.58983 0 -1.17075)
(8.70857 1.07097e-22 -1.01256)
(8.81535 0 -0.873456)
(8.9111 2.35878e-22 -0.750883)
(8.99661 2.5514e-22 -0.642522)
(9.07249 0 -0.546347)
(9.13928 1.52347e-24 -0.460519)
(9.19738 0 -0.383406)
(9.24709 0 -0.313514)
(9.28865 3.30077e-24 -0.249474)
(9.32215 0 -0.190001)
(9.34759 0 -0.133852)
(9.36486 0 -0.0797982)
(9.37366 0 -0.0265678)
(0.979059 1.02892e-22 -9.18902)
(2.47656 1.18814e-21 -8.75387)
(3.7589 0 -8.05965)
(4.78485 -7.6785e-22 -7.25475)
(5.58041 -6.81481e-22 -6.43984)
(6.19298 0 -5.66967)
(6.66902 -1.05055e-21 -4.96844)
(7.04625 9.18536e-22 -4.34283)
(7.35269 -8.01592e-22 -3.79075)
(7.60813 0 -3.30628)
(7.8262 -8.29061e-22 -2.88225)
(8.01619 -8.48903e-22 -2.51153)
(8.18439 4.91339e-22 -2.18745)
(8.33506 -6.42494e-22 -1.90406)
(8.47112 -1.7506e-22 -1.65607)
(8.59455 3.79632e-22 -1.43887)
(8.7068 1.31992e-22 -1.24838)
(8.80889 -1.76003e-22 -1.08105)
(8.90156 0 -0.933768)
(8.98542 0 -0.803783)
(9.06091 9.11026e-24 -0.688682)
(9.1284 7.75665e-24 -0.586319)
(9.18819 0 -0.494781)
(9.2405 0 -0.412364)
(9.28548 0 -0.337508)
(9.32324 1.77817e-24 -0.268784)
(9.35379 0 -0.204845)
(9.37705 0 -0.144384)
(9.39287 0 -0.0861075)
(9.40095 0 -0.0286737)
(1.25183 -1.02735e-21 -10.9903)
(3.1317 -1.53545e-21 -10.2629)
(4.59763 0 -9.20275)
(5.65065 1.7099e-21 -8.08261)
(6.3879 0 -7.03358)
(6.90824 0 -6.10086)
(7.28627 -1.11846e-21 -5.28985)
(7.57235 -2.00458e-22 -4.5904)
(7.79878 1.47866e-21 -3.98807)
(7.98589 7.32755e-22 -3.46858)
(8.14626 2.01622e-25 -3.01936)
(8.28775 -3.36202e-22 -2.62981)
(8.4152 1.19098e-21 -2.29106)
(8.53157 -2.10911e-22 -1.99578)
(8.63874 0 -1.73778)
(8.73782 1.59811e-22 -1.51189)
(8.82951 1.8771e-26 -1.31368)
(8.91422 0 -1.13937)
(8.99223 5.21317e-23 -0.985686)
(9.06372 2.24757e-23 -0.849784)
(9.1288 2.4164e-22 -0.729177)
(9.18756 2.59644e-22 -0.62166)
(9.24006 0 -0.525288)
(9.28633 0 -0.438304)
(9.32638 0 -0.359113)
(9.36017 0 -0.286245)
(9.38762 -1.44418e-24 -0.218313)
(9.4086 0 -0.153965)
(9.4229 0 -0.0918573)
(9.43021 0 -0.0305946)
(1.70967 1.38894e-21 -13.4569)
(4.19383 -2.5624e-21 -12.0749)
(5.82774 -9.79902e-21 -10.3865)
(6.80718 -9.97612e-22 -8.8314)
(7.38822 3.11963e-21 -7.51285)
(7.7452 0 -6.41961)
(7.97921 0 -5.51355)
(8.14582 -1.72407e-21 -4.75716)
(8.27522 -1.09238e-23 -4.11981)
(8.38375 1.19959e-21 -3.57798)
(8.48025 2.40017e-22 -3.11377)
(8.56945 4.5348e-22 -2.71349)
(8.65377 4.99995e-22 -2.36654)
(8.73438 0 -2.06451)
(8.81167 0 -1.80065)
(8.88571 1.93613e-26 -1.56942)
(8.95632 -1.44446e-22 -1.36623)
(9.02327 0 -1.18719)
(9.0863 5.44217e-23 -1.02895)
(9.14515 4.70094e-23 -0.888666)
(9.19958 0 -0.763824)
(9.24939 1.72567e-23 -0.652227)
(9.29442 0 -0.551911)
(9.33448 1.52545e-24 -0.461118)
(9.36945 0 -0.378238)
(9.39915 1.99654e-24 -0.301785)
(9.42341 -1.52384e-24 -0.23035)
(9.44203 0 -0.162555)
(9.45475 0 -0.0970239)
(9.46127 0 -0.0323226)
(2.61422 2.96756e-22 -17.213)
(6.0759 5.06778e-21 -14.1622)
(7.67026 -4.83658e-21 -11.4321)
(8.32618 1.09696e-20 -9.35304)
(8.58558 -5.35598e-24 -7.78413)
(8.68644 -1.01122e-20 -6.5722)
(8.72736 -6.0597e-21 -5.60981)
(8.74905 -3.70033e-21 -4.82677)
(8.76817 -1.85552e-21 -4.17701)
(8.79122 -3.72144e-21 -3.6295)
(8.82026 -1.19934e-21 -3.16267)
(8.85532 5.83127e-22 -2.761)
(8.89561 -9.80536e-22 -2.41294)
(8.93996 -4.73244e-22 -2.1097)
(8.98717 2.37881e-22 -1.84434)
(9.03604 2.39156e-22 -1.61126)
(9.08554 0 -1.40588)
(9.13468 0 -1.22437)
(9.18267 -5.62387e-23 -1.06346)
(9.22881 2.43427e-23 -0.920331)
(9.27252 0 -0.79254)
(9.31331 1.79359e-23 -0.677932)
(9.35078 0 -0.574576)
(9.38456 1.59036e-24 -0.480738)
(9.41436 0 -0.394824)
(9.43989 4.17267e-24 -0.315355)
(9.4609 0 -0.240918)
(9.4771 0 -0.170128)
(9.48822 0 -0.10159)
(9.49393 0 -0.0338521)
(4.71402 -6.3828e-21 -23.8273)
(9.74233 -2.1091e-20 -15.9383)
(10.3871 -5.0189e-21 -11.8654)
(10.2047 1.25526e-20 -9.40494)
(9.92224 -1.34585e-20 -7.73531)
(9.67882 -1.90876e-20 -6.50797)
(9.49195 -1.27094e-20 -5.55565)
(9.35525 2.02214e-21 -4.78881)
(9.2593 0 -4.15495)
(9.19559 -1.52847e-21 -3.62112)
(9.15728 6.68265e-22 -3.16531)
(9.13885 9.6741e-22 -2.77213)
(9.13585 -5.13359e-22 -2.43036)
(9.1447 -1.45221e-21 -2.13152)
(9.16245 -2.42506e-22 -1.86901)
(9.18669 1.73059e-22 -1.63752)
(9.21545 2.5622e-31 -1.43273)
(9.24708 2.44763e-22 -1.251)
(9.28026 -5.7603e-23 -1.08924)
(9.31384 4.99709e-23 -0.944792)
(9.34692 -4.31174e-23 -0.815317)
(9.37874 9.24359e-24 -0.69876)
(9.40865 0 -0.593257)
(9.43615 0 -0.497137)
(9.46077 0 -0.408845)
(9.48211 2.16293e-24 -0.326929)
(9.49984 0 -0.249995)
(9.51361 0 -0.176665)
(9.52311 0 -0.105547)
(9.528 0 -0.0351794)
(9.97777 0 0.566811)
(9.93371 0 0.576784)
(9.89031 0 0.596316)
(9.84739 0 0.625262)
(9.80479 0 0.663714)
(9.76249 0 0.711974)
(9.72052 0 0.770533)
(9.67903 -4.4429e-23 0.840081)
(9.63827 0 0.921493)
(9.59866 5.37321e-23 1.01584)
(9.56074 0 1.12443)
(9.52529 0 1.24878)
(9.49326 -7.35742e-23 1.39071)
(9.46592 1.64161e-22 1.55236)
(9.44486 -1.83525e-22 1.73625)
(9.4321 -4.11128e-22 1.94545)
(9.43023 0 2.18366)
(9.44251 5.18642e-22 2.45544)
(9.47324 0 2.76649)
(9.52808 0 3.12423)
(9.61469 -1.49379e-21 3.5384)
(9.74378 -1.69854e-21 4.02225)
(9.93095 5.20912e-25 4.59459)
(10.2002 -2.23209e-21 5.28315)
(10.5913 -1.296e-21 6.13103)
(11.1781 -1.52519e-21 7.20979)
(12.119 -2.28889e-22 8.64882)
(13.8298 0 10.7063)
(17.6379 -3.23333e-20 13.9644)
(28.4875 -4.64859e-20 19.9207)
(9.98039 0 0.588327)
(9.94157 0 0.598399)
(9.90351 0 0.618111)
(9.86615 0 0.64729)
(9.82949 0 0.685988)
(9.79361 0 0.734458)
(9.75869 0 0.793128)
(9.72503 -4.56215e-23 0.86261)
(9.69303 0 0.94368)
(9.66328 0 1.0373)
(9.63655 6.05473e-23 1.1446)
(9.61383 0 1.26695)
(9.59638 -7.43775e-23 1.40589)
(9.58577 1.65316e-22 1.56329)
(9.58402 -1.84052e-22 1.74127)
(9.59367 -4.10467e-22 1.9424)
(9.618 4.58355e-22 2.16968)
(9.66113 3.10669e-28 2.42675)
(9.72859 0 2.71808)
(9.82771 -4.80927e-21 3.04915)
(9.96856 -4.22556e-21 3.42692)
(10.1654 6.99599e-21 3.86033)
(10.4392 2.65904e-20 4.36095)
(10.8226 1.62977e-20 4.94384)
(11.3685 -1.18936e-21 5.62824)
(12.1684 0 6.43656)
(13.3902 4.57326e-20 7.38393)
(15.3435 5.19562e-20 8.43416)
(18.5407 -4.93181e-22 9.31068)
(23.3154 -7.7653e-20 8.75973)
(9.98308 0 0.607565)
(9.94966 0 0.617659)
(9.91709 0 0.637398)
(9.88543 0 0.666577)
(9.85482 0 0.705208)
(9.82545 0 0.753481)
(9.79763 0 0.811757)
(9.77179 0 0.880548)
(9.7485 0 0.960523)
(9.72848 0 1.05249)
(9.71269 1.2245e-22 1.15742)
(9.7023 -1.89298e-22 1.27642)
(9.6988 -2.5673e-22 1.41079)
(9.70405 -3.48575e-22 1.56199)
(9.72039 -1.72692e-21 1.73171)
(9.75073 -1.03248e-21 1.92187)
(9.79878 4.50923e-22 2.13468)
(9.86932 2.28995e-25 2.37262)
(9.96855 0 2.63855)
(10.1046 -9.18593e-21 2.93575)
(10.2888 -1.81389e-20 3.26773)
(10.5364 -9.70497e-21 3.63823)
(10.8693 8.39898e-27 4.05048)
(11.3197 1.92448e-20 4.50584)
(11.9348 2.02943e-20 4.99998)
(12.7855 0 5.51372)
(13.9721 1.26593e-21 5.99135)
(15.6156 -5.36585e-20 6.28966)
(17.7748 -6.06252e-20 6.07215)
(20.1655 1.38859e-19 4.65678)
(9.98584 0 0.624327)
(9.95793 0 0.634364)
(9.93094 0 0.653975)
(9.90508 0 0.682922)
(9.88056 0 0.721168)
(9.85773 0 0.768844)
(9.837 0 0.82622)
(9.8189 0 0.893711)
(9.80414 0 0.971849)
(9.79357 0 1.06129)
(9.78828 1.23018e-22 1.16278)
(9.78962 1.35129e-22 1.27719)
(9.79921 -1.10779e-22 1.40549)
(9.81913 -1.29962e-21 1.54876)
(9.85187 -1.22372e-21 1.70813)
(9.9006 0 1.88486)
(9.96925 -2.1116e-21 2.08023)
(10.0628 -1.64653e-21 2.29552)
(10.1875 4.31705e-21 2.53193)
(10.3517 4.38685e-21 2.79032)
(10.5662 -1.29638e-21 3.07092)
(10.8451 -7.11687e-22 3.37258)
(11.2075 -1.55753e-21 3.6914)
(11.6786 0 4.01821)
(12.2911 9.15047e-22 4.33386)
(13.0841 -4.45571e-20 4.6002)
(14.0955 2.04883e-21 4.74506)
(15.3369 1.04515e-19 4.63975)
(16.7348 -5.70476e-20 4.07971)
(18.0351 -1.22333e-19 2.81744)
(9.98863 0 0.638426)
(9.96631 0 0.648328)
(9.94498 0 0.667656)
(9.92493 0 0.69614)
(9.90653 0 0.733693)
(9.89019 0 0.780373)
(9.87644 0 0.836366)
(9.86591 0 0.901967)
(9.8594 -2.60979e-22 0.977571)
(9.85787 -2.60939e-22 1.06364)
(9.8625 -1.99662e-22 1.16074)
(9.87474 -1.94233e-22 1.26944)
(9.89634 1.47007e-22 1.39037)
(9.92942 -3.22337e-22 1.52418)
(9.97658 0 1.67149)
(10.041 -1.93724e-22 1.83284)
(10.1265 2.12208e-22 2.0086)
(10.238 -2.3234e-22 2.19889)
(10.3814 0 2.40334)
(10.5643 0 2.62072)
(10.7958 -1.20235e-21 2.84849)
(11.0875 -6.50333e-22 3.0818)
(11.4534 0 3.31212)
(11.9099 -7.43847e-22 3.52474)
(12.4741 7.79778e-22 3.69526)
(13.1598 0 3.78439)
(13.968 7.87498e-22 3.73208)
(14.8693 -5.09671e-20 3.4547)
(15.778 -5.36402e-20 2.85555)
(16.5358 -1.97152e-22 1.86932)
(9.99144 0 0.64969)
(9.97474 0 0.659381)
(9.95907 0 0.678276)
(9.94483 0 0.706074)
(9.93249 0 0.742635)
(9.92253 0 0.787945)
(9.91558 0 0.842091)
(9.91236 0 0.905253)
(9.91371 0 0.977674)
(9.92069 0 1.05964)
(9.93453 0 1.15148)
(9.9567 -2.63556e-22 1.25349)
(9.98899 -3.36674e-22 1.36598)
(10.0335 -1.21988e-21 1.48915)
(10.0928 -3.03453e-21 1.6231)
(10.1699 -2.34063e-21 1.76773)
(10.2684 -1.16674e-25 1.9226)
(10.3927 -2.20461e-22 2.08677)
(10.548 0 2.25861)
(10.7404 0 2.43529)
(10.977 -1.10283e-21 2.61238)
(11.2661 -5.87005e-22 2.78291)
(11.6164 0 2.93622)
(12.036 1.97925e-20 3.05648)
(12.5303 2.12755e-20 3.12063)
(13.0979 0 3.09684)
(13.7241 0 2.94427)
(14.3717 -4.88446e-20 2.61734)
(14.9751 -5.08562e-20 2.07894)
(15.4435 -3.50322e-23 1.32575)
(9.99425 0 0.657969)
(9.98315 0 0.667375)