/*--------------------------------*- C++ -*----------------------------------*\
| =========                 |                                                 |
| \\      /  F ield         | OpenFOAM: The Open Source CFD Toolbox           |
|  \\    /   O peration     | Version:  2012                                  |
|   \\  /    A nd           | Website:  www.openfoam.com                      |
|    \\/     M anipulation  |                                                 |
\*---------------------------------------------------------------------------*/
FoamFile
{
    version     2.0;
    format      ascii;
    class       surfaceVectorField;
    location    "0.2";
    object      Uf;
}
// * * * * * * * * * * * * * * * * * * * * * * * * * * * * * * * * * * * * * //

dimensions      [0 1 -1 0 0 0 0];


internalField   nonuniform List<vector> 
5457
(
(9.92318 3.87448e-24 0.0241975)
(9.97208 -2.62926e-27 0.0376184)
(9.83063 0 0.0311859)
(9.93189 -1.58767e-23 0.0464233)
(9.72232 0 0.0367304)
(9.86243 1.61071e-23 0.055635)
(9.5961 0 0.042155)
(9.76783 -3.29695e-23 0.0664089)
(9.45243 0 0.0473702)
(9.65285 3.38258e-23 0.0774149)
(9.29247 7.43187e-23 0.0523314)
(9.51891 6.96258e-23 0.0882754)
(9.11729 -8.16503e-23 0.0571461)
(9.36638 2.91457e-22 0.0990099)
(8.92769 4.9741e-22 0.0619794)
(9.19593 -8.97143e-22 0.109746)
(8.72413 -3.03132e-23 0.0670165)
(9.00843 9.47045e-22 0.120676)
(8.50661 -6.47656e-22 0.0724512)
(8.80452 -6.55436e-22 0.132055)
(8.27468 -1.4818e-21 0.0784759)
(8.58434 0 0.144183)
(8.02748 1.6297e-21 0.085271)
(8.34759 -1.46445e-21 0.15737)
(7.76376 1.40687e-21 0.0929966)
(8.0935 3.04159e-21 0.17191)
(7.48199 -1.5626e-21 0.101789)
(7.82095 1.50391e-21 0.188058)
(7.18049 4.96887e-23 0.111761)
(7.52853 3.29377e-21 0.20602)
(6.85751 -3.72528e-21 0.122998)
(7.21466 9.09803e-23 0.225943)
(6.51135 4.27059e-22 0.135562)
(6.8777 3.5079e-21 0.247905)
(6.14049 4.13737e-21 0.149481)
(6.51608 5.04334e-21 0.271905)
(5.74372 -4.45377e-21 0.164747)
(6.12839 -2.54777e-20 0.297842)
(5.32028 2.03633e-20 0.181307)
(5.71361 2.14412e-20 0.325508)
(4.87003 -2.30446e-21 0.199056)
(5.27118 5.96753e-21 0.35457)
(4.39358 1.9994e-20 0.217828)
(4.80123 -6.36291e-21 0.384561)
(3.89245 4.47898e-20 0.237399)
(4.30469 -3.9975e-20 0.414872)
(3.36912 0 0.257495)
(3.78347 9.19158e-20 0.444768)
(2.82711 -1.17436e-19 0.277805)
(3.24047 -3.02386e-19 0.473412)
(2.27078 -3.72438e-19 0.297991)
(2.67954 4.20311e-19 0.499917)
(1.70514 2.73294e-20 0.317664)
(2.10518 -2.54624e-19 0.523376)
(1.13537 4.26774e-19 0.336656)
(1.52232 1.93444e-20 0.542788)
(0.565073 -1.20633e-18 0.351767)
(0.924338 1.52742e-19 0.557923)
(0.39432 -1.18439e-18 0.555941)
(9.99814 -1.99334e-23 0.0494525)
(9.99774 -1.96387e-24 0.0385309)
(9.96291 6.21623e-25 0.0674785)
(9.98107 -2.0671e-24 0.0640913)
(9.90416 -1.74487e-23 0.0835964)
(9.93841 5.15737e-26 0.0858149)
(9.82281 1.65411e-24 0.100438)
(9.8701 -1.66188e-23 0.109208)
(9.71847 1.03879e-22 0.117641)
(9.77894 1.69096e-23 0.133639)
(9.59162 2.89412e-22 0.134823)
(9.66595 4.34965e-25 0.158279)
(9.44324 -5.38286e-22 0.151957)
(9.53145 2.89827e-22 0.182871)
(9.27445 -4.25457e-22 0.169217)
(9.37609 -2.28627e-22 0.207455)
(9.08621 3.03032e-22 0.186897)
(9.20089 4.6082e-22 0.232265)
(8.87921 0 0.205386)
(9.00672 -1.57266e-22 0.257719)
(8.65373 0 0.225125)
(8.79409 -1.31953e-21 0.284363)
(8.40956 0 0.246564)
(8.56304 0 0.312813)
(8.14605 3.1213e-21 0.270121)
(8.31315 -9.12678e-23 0.34368)
(7.86218 6.3812e-21 0.296157)
(8.04359 1.47392e-22 0.377525)
(7.55661 3.30092e-21 0.32495)
(7.75318 3.29373e-21 0.414822)
(7.22784 7.36884e-21 0.356686)
(7.44049 6.71154e-21 0.455934)
(6.87431 8.14206e-21 0.391441)
(7.10393 1.73941e-22 0.501089)
(6.49452 -2.49212e-20 0.429158)
(6.74188 9.73841e-22 0.550352)
(6.08718 9.62614e-22 0.469628)
(6.35284 2.21941e-20 0.603596)
(5.65138 6.83414e-21 0.512472)
(5.93553 -2.39058e-20 0.660468)
(5.18678 1.77616e-21 0.557116)
(5.4891 -1.85992e-20 0.720357)
(4.69372 -6.67952e-20 0.602791)
(5.01327 -1.3384e-19 0.782371)
(4.17344 8.67946e-21 0.648547)
(4.50851 2.8033e-19 0.845322)
(3.62816 -2.15476e-19 0.693309)
(3.97624 9.72714e-20 0.907737)
(3.06112 2.44325e-19 0.735965)
(3.41887 -1.05315e-18 0.967931)
(2.47642 5.29533e-19 0.775523)
(2.83986 1.75477e-18 1.02413)
(1.87856 -2.59714e-19 0.81128)
(2.24343 -6.53627e-19 1.07469)
(1.27161 -2.53638e-19 0.843503)
(1.63495 -1.69873e-18 1.11824)
(0.65706 1.56102e-19 0.865771)
(1.00792 2.21033e-18 1.15548)
(0.43898 1.08427e-20 1.16574)
(9.99069 1.58965e-23 0.0562953)
(9.99549 1.94987e-24 0.0430894)
(9.95824 -2.60269e-24 0.085378)
(9.97619 -1.95759e-24 0.0803662)
(9.90269 6.91417e-25 0.113843)
(9.93431 -8.06118e-24 0.11435)
(9.82546 -9.5672e-25 0.143936)
(9.86876 4.08873e-23 0.149842)
(9.72635 -8.67394e-23 0.175146)
(9.78106 -6.66457e-23 0.187045)
(9.60546 4.30084e-24 0.206736)
(9.67206 -6.87768e-23 0.22499)
(9.46347 5.93174e-22 0.238403)
(9.54209 3.1856e-22 0.263123)
(9.30129 6.65911e-22 0.270217)
(9.39172 -3.57621e-22 0.301337)
(9.11976 -6.85993e-24 0.302523)
(9.22187 7.56168e-22 0.339873)
(8.91954 -1.49059e-21 0.335886)
(9.03332 -1.40624e-21 0.379273)
(8.70088 -1.3039e-21 0.371014)
(8.82656 -1.31354e-21 0.420305)
(8.4636 -9.2345e-23 0.40867)
(8.60162 -2.70512e-21 0.463865)
(8.20711 -3.06144e-21 0.449598)
(8.35811 2.6683e-22 0.510873)
(7.93042 -2.90231e-21 0.494465)
(8.09523 -3.30284e-21 0.562196)
(7.6322 6.7451e-21 0.543821)
(7.8118 -3.14198e-21 0.618594)
(7.31092 -5.56299e-22 0.598068)
(7.50636 9.94988e-21 0.680674)
(6.96492 -6.98241e-21 0.657424)
(7.17728 4.54783e-23 0.748854)
(6.59253 4.83269e-20 0.721891)
(6.82281 -1.4257e-20 0.823326)
(6.19222 -3.19098e-21 0.791208)
(6.44123 7.81014e-20 0.904006)
(5.76272 -4.92742e-20 0.864817)
(6.03096 -1.15105e-19 0.99048)
(5.3032 -1.5557e-19 0.941817)
(5.59071 6.74633e-20 1.08195)
(4.81347 2.1804e-19 1.02093)
(5.11969 -1.53772e-19 1.17718)
(4.29415 3.66973e-19 1.10051)
(4.61773 3.65789e-19 1.27446)
(3.74683 -7.5425e-19 1.1786)
(4.08556 5.03393e-19 1.37161)
(3.17419 4.91713e-19 1.25302)
(3.52493 -1.18956e-18 1.46602)
(2.57999 5.42115e-19 1.32165)
(2.93881 1.21816e-18 1.55487)
(1.96883 -2.10525e-18 1.38271)
(2.33129 1.69926e-19 1.63535)
(1.34585 8.09044e-19 1.43577)
(1.70881 -2.54895e-18 1.705)
(0.715557 2.03625e-18 1.47091)
(1.06646 2.12636e-20 1.76377)
(0.473802 1.84358e-18 1.7839)
(9.9868 -1.59527e-23 0.0675132)
(9.99434 -1.93645e-24 0.0495547)
(9.95421 -7.48945e-24 0.108572)
(9.97335 -2.94514e-23 0.0967097)
(9.89968 3.27173e-23 0.149569)
(9.93133 1.59756e-23 0.142364)
(9.82376 -2.60868e-23 0.192226)
(9.86702 -4.82878e-23 0.189784)
(9.72658 -4.87191e-23 0.236244)
(9.78125 4.99968e-23 0.239411)
(9.60829 2.50095e-22 0.280864)
(9.67468 -6.75701e-23 0.290265)
(9.46951 -6.40282e-22 0.325673)
(9.54771 2.8029e-22 0.341561)
(9.31109 -2.54057e-22 0.370717)
(9.40096 -2.9642e-22 0.393042)
(9.13383 -6.68963e-22 0.416432)
(9.23528 -6.97338e-23 0.444948)
(8.93836 -1.22821e-21 0.463572)
(9.05144 6.38519e-23 0.497945)
(8.72489 -2.73135e-21 0.513096)
(8.84987 1.28958e-21 0.553014)
(8.49326 -2.31086e-21 0.566058)
(8.63063 -3.42232e-23 0.611322)
(8.24287 -1.65408e-23 0.623506)
(8.39331 -3.43441e-22 0.674093)
(7.97271 -3.54061e-21 0.686403)
(8.13711 -3.95288e-21 0.742501)
(7.68146 2.15365e-22 0.755566)
(7.86084 -4.63845e-21 0.817596)
(7.36754 1.04388e-20 0.831626)
(7.56303 1.58977e-20 0.900252)
(7.0292 -7.38939e-21 0.914982)
(7.24194 7.10978e-21 0.991112)
(6.6646 1.65819e-20 1.00575)
(6.8957 -1.42574e-20 1.09054)
(6.27197 -3.60226e-20 1.1037)
(6.52235 8.29316e-22 1.19858)
(5.84967 3.70213e-21 1.2082)
(6.12 -1.27881e-19 1.31482)
(5.3964 6.66854e-20 1.31813)
(5.68691 1.96859e-19 1.43838)
(4.91137 0 1.43185)
(5.22168 -6.85893e-20 1.5678)
(4.39452 5.03938e-19 1.54709)
(4.72346 7.27002e-20 1.70091)
(3.84674 4.83401e-20 1.66107)
(4.19219 4.97119e-19 1.83484)
(3.27012 -4.33448e-19 1.77052)
(3.62888 -4.38862e-19 1.96598)
(2.66814 8.33407e-19 1.87197)
(3.03594 0 2.09018)
(2.04582 -3.07233e-19 1.96207)
(2.41737 6.31173e-19 2.20297)
(1.40985 -3.30476e-18 2.03872)
(1.78083 5.51066e-19 2.29989)
(0.768259 -1.51891e-19 2.08686)
(1.12366 -5.65767e-18 2.37865)
(0.508339 4.06601e-18 2.4028)
(9.98499 -1.57614e-23 0.0793502)
(9.99383 1.34392e-23 0.0569068)
(9.95197 -5.44354e-24 0.13084)
(9.97202 -1.97036e-24 0.113271)
(9.89841 -6.57979e-23 0.183184)
(9.93014 1.19313e-23 0.169876)
(9.82406 2.8968e-23 0.237676)
(9.8672 7.8742e-24 0.228901)
(9.72904 2.97227e-23 0.294067)
(9.78362 6.68389e-23 0.290609)
(9.61359 -3.32181e-23 0.351494)
(9.67985 -5.12546e-23 0.353979)
(9.47828 6.17256e-22 0.409354)
(9.55631 -5.18959e-22 0.418042)
(9.32391 -1.09383e-22 0.467593)
(9.41364 1.07267e-21 0.482398)
(9.15128 6.64621e-22 0.526684)
(9.25266 -6.72931e-22 0.547281)
(8.96098 2.59599e-21 0.587532)
(9.07414 2.59757e-21 0.613473)
(8.75325 3.97064e-21 0.651329)
(8.8785 1.2836e-21 0.682162)
(8.52789 1.92929e-21 0.719411)
(8.66578 -2.59572e-22 0.754786)
(8.28432 -4.3222e-21 0.793129)
(8.4356 -3.65595e-22 0.832866)
(8.02152 -5.05861e-21 0.873747)
(8.18715 2.09096e-21 0.917887)
(7.73815 1.12822e-20 0.962373)
(7.91924 -1.49647e-21 1.01121)
(7.43257 1.24689e-20 1.0599)
(7.63033 -1.19906e-20 1.11399)
(7.10289 0 1.16694)
(7.31863 2.55691e-20 1.22714)
(6.7471 -2.98325e-20 1.2838)
(6.98207 -5.40071e-20 1.35126)
(6.36311 -9.25024e-20 1.41036)
(6.61846 2.64118e-20 1.48657)
(5.94889 6.89158e-20 1.54599)
(6.2255 -6.26325e-20 1.6328)
(5.50256 5.85502e-20 1.68948)
(5.80092 6.67316e-20 1.7891)
(5.02264 5.72698e-21 1.83887)
(5.34264 -6.75868e-20 1.95386)
(4.50828 7.08661e-20 1.99139)
(4.84892 7.16092e-20 2.12459)
(3.95952 -9.80994e-22 2.14335)
(4.31875 2.20907e-19 2.29776)
(3.37774 0 2.29026)
(3.75215 -3.84743e-19 2.4687)
(2.76608 -1.94414e-19 2.42693)
(3.15076 -6.67071e-19 2.63162)
(2.12991 1.48909e-18 2.54786)
(2.51823 1.225e-18 2.77987)
(1.47747 -1.8832e-18 2.64837)
(1.86316 2.43212e-18 2.9062)
(0.819724 -1.32007e-18 2.70663)
(1.18528 -3.56564e-18 3.00501)
(0.543848 2.13752e-19 3.02857)
(9.98422 2.70482e-23 0.0915029)
(9.99364 1.04072e-26 0.0646335)
(9.95116 1.55717e-23 0.152853)
(9.97165 1.17162e-23 0.129856)
(9.89879 8.55519e-23 0.216187)
(9.93034 3.94674e-24 0.196775)
(9.82643 4.64443e-23 0.282337)
(9.86907 9.67309e-23 0.26697)
(9.73408 -1.55538e-23 0.350872)
(9.78807 8.08131e-23 0.340375)
(9.62198 -5.42541e-22 0.420767)
(9.6876 1.6733e-23 0.415838)
(9.49073 -4.45369e-23 0.491256)
(9.56807 -8.23003e-22 0.492225)
(9.34111 4.88335e-22 0.562211)
(9.43014 -1.38106e-22 0.569007)
(9.1739 1.29894e-21 0.634164)
(9.27464 -1.04489e-21 0.646405)
(8.98968 1.26959e-21 0.708182)
(9.1023 5.0051e-23 0.72531)
(8.78869 -2.96487e-21 0.785699)
(8.91358 7.78858e-23 0.807116)
(8.57076 -2.55572e-21 0.868338)
(8.70853 -5.53094e-21 0.893522)
(8.33529 6.07555e-21 0.957756)
(8.48676 3.35941e-22 0.986351)
(8.08129 5.61061e-21 1.05553)
(8.24749 5.6769e-21 1.0874)
(7.80737 -2.48891e-20 1.16308)
(7.98954 0 1.19835)
(7.51183 1.54367e-21 1.28159)
(7.71132 -1.86361e-20 1.32069)
(7.19264 -2.93485e-20 1.41196)
(7.41094 6.69653e-21 1.45562)
(6.84758 3.14103e-21 1.55472)
(7.08619 -5.4133e-20 1.60406)
(6.4742 5.52794e-20 1.70997)
(6.73456 2.85754e-20 1.76651)
(6.06996 -6.33774e-20 1.87722)
(6.35334 0 1.94295)
(5.63234 -6.09477e-20 2.05527)
(5.93964 5.70166e-20 2.1327)
(5.15898 -1.22141e-22 2.24201)
(5.49052 -5.91172e-20 2.3342)
(4.64798 2.23306e-19 2.43419)
(5.00319 1.96299e-19 2.54478)
(4.09826 -1.69502e-19 2.6273)
(4.47532 1.8316e-20 2.76037)
(3.51011 -1.05523e-18 2.8154)
(3.90553 -3.83352e-19 2.97522)
(2.8859 7.74186e-19 2.99123)
(3.29412 -6.67322e-19 3.18175)
(2.23102 2.18435e-18 3.14648)
(2.6438 1.41751e-18 3.3706)
(1.55486 6.69412e-19 3.27297)
(1.96349 7.74426e-19 3.53096)
(0.870878 -1.98008e-18 3.34028)
(1.25459 -9.37096e-20 3.65297)
(0.580507 -1.81207e-18 3.67453)
(9.98406 -1.51818e-23 0.103711)
(9.99366 -1.53654e-23 0.072441)
(9.95139 0 0.174485)
(9.97191 2.6865e-23 0.146242)
(9.90047 1.62343e-23 0.248314)
(9.93158 3.89196e-24 0.222931)
(9.83046 1.30902e-22 0.325665)
(9.8723 -4.71287e-23 0.303805)
(9.74122 1.12339e-22 0.405868)
(9.79424 -1.56706e-23 0.388459)
(9.63304 -2.73777e-22 0.487731)
(9.69755 2.62516e-22 0.475541)
(9.50649 -9.08371e-22 0.570342)
(9.58261 2.70358e-22 0.563751)
(9.36235 -1.68205e-21 0.653511)
(9.4501 -1.18456e-21 0.652438)
(9.20142 -2.2806e-21 0.737816)
(9.30086 9.84775e-23 0.74181)
(9.02425 -1.14118e-21 0.82448)
(9.13562 -1.23465e-21 0.832863)
(8.83112 -2.55493e-21 0.915166)
(8.95485 1.55857e-24 0.927185)
(8.62187 -2.57044e-21 1.01177)
(8.75862 7.79675e-21 1.02673)
(8.39593 0 1.11627)
(8.54659 -9.74437e-22 1.13362)
(8.15232 0 1.23056)
(8.31802 1.13233e-20 1.24998)
(7.88964 6.03482e-21 1.35638)
(8.07173 1.38567e-20 1.37782)
(7.60613 -1.31899e-20 1.49526)
(7.80614 3.10948e-21 1.51895)
(7.29966 -1.8784e-20 1.64843)
(7.51928 -1.88694e-20 1.67498)
(6.96775 -2.77749e-20 1.81677)
(7.20879 1.24624e-20 1.84717)
(6.60762 -2.70277e-20 2.00069)
(6.8719 1.21534e-20 2.03644)
(6.21615 1.21029e-19 2.20001)
(6.50544 -2.66464e-20 2.24315)
(5.79004 5.76401e-20 2.41372)
(6.10586 1.19711e-19 2.46699)
(5.32587 1.40117e-19 2.63975)
(5.66926 -1.1787e-19 2.7067)
(4.82041 -1.04806e-20 2.87462)
(5.19151 7.42323e-20 2.95971)
(4.27096 -1.99848e-19 3.11309)
(4.66861 -2.04746e-19 3.22166)
(3.67612 1.54208e-21 3.34778)
(4.09712 3.39596e-19 3.48594)
(3.03674 0 3.56902)
(3.47517 -2.80337e-19 3.74311)
(2.35736 0 3.76501)
(2.80347 0 3.98073)
(1.64796 0 3.92315)
(2.0902 6.44646e-19 4.18344)
(0.924246 5.344e-20 4.00231)
(1.33665 -6.91645e-19 4.33605)
(0.619686 5.851e-20 4.35833)
(9.98426 2.7186e-23 0.115756)
(9.99379 1.51063e-23 0.0801502)
(9.95237 3.04833e-23 0.195541)
(9.97261 -5.73299e-24 0.162237)
(9.90318 -6.00806e-23 0.279348)
(9.9336 1.9417e-24 0.2482)
(9.83585 -1.93322e-22 0.367401)
(9.87665 3.71466e-24 0.339227)
(9.75018 1.37836e-22 0.45878)
(9.8019 -1.2936e-22 0.434623)
(9.64643 8.06692e-22 0.5521)
(9.70947 1.32378e-24 0.532796)
(9.5252 -2.32402e-23 0.646303)
(9.59969 1.03732e-21 0.632268)
(9.38728 6.1112e-22 0.741129)
(9.47326 9.85518e-23 0.732274)
(9.23344 1.12843e-21 0.837202)
(9.33102 2.11582e-21 0.833007)
(9.06428 -7.7233e-23 0.935885)
(9.17375 7.1391e-23 0.935556)
(8.88009 1.04447e-20 1.03906)
(9.0019 -2.43622e-21 1.04169)
(8.68076 9.28864e-21 1.14892)
(8.81563 5.63587e-21 1.15363)
(8.46576 1.04931e-20 1.26771)
(8.61463 -1.13082e-21 1.27376)
(8.23415 2.52095e-20 1.39769)
(8.39823 -1.08522e-20 1.40454)
(7.98457 1.08075e-20 1.54094)
(8.16531 1.50265e-20 1.54832)
(7.71522 -2.82354e-21 1.69935)
(7.91432 -2.85626e-21 1.7073)
(7.42389 1.27334e-20 1.87457)
(7.64328 0 1.88347)
(7.10791 5.23792e-20 2.06791)
(7.34973 1.25907e-20 2.07857)
(6.76414 1.21107e-20 2.28024)
(7.03067 3.94847e-20 2.294)
(6.38892 -2.63553e-20 2.51186)
(6.68255 2.3882e-20 2.53073)
(5.97809 -5.83583e-20 2.76224)
(6.30114 0 2.78905)
(5.52702 -1.81681e-19 3.02965)
(5.88151 5.19445e-20 3.0683)
(5.03079 -1.23033e-19 3.31072)
(5.41805 -1.23258e-19 3.36643)
(4.48457 3.4078e-19 3.59982)
(4.90463 5.89584e-20 3.6793)
(3.88435 5.09995e-20 3.88837)
(4.33504 3.38212e-19 3.9999)
(3.22828 -2.77105e-19 4.1642)
(3.70405 -5.40475e-19 4.31729)
(2.51869 6.53196e-19 4.41134)
(3.00872 2.87191e-19 4.61579)
(1.765 -6.70295e-20 4.61154)
(2.25478 6.44997e-19 4.87443)
(0.984909 -6.74962e-19 4.71019)
(1.44017 -3.67724e-19 5.07084)
(0.664945 -3.6451e-19 5.10221)
(9.98471 -1.80609e-23 0.127477)
(9.99401 9.40129e-27 0.0876395)
(9.95392 -3.41809e-23 0.215865)
(9.97363 -3.25972e-23 0.177677)
(9.90677 6.57575e-23 0.309142)
(9.93626 -1.95026e-24 0.272424)
(9.84247 6.6086e-23 0.407369)
(9.88195 1.90828e-22 0.373057)
(9.76079 -2.64288e-22 0.509385)
(9.81089 0 0.478634)
(9.662 2.44343e-22 0.613595)
(9.72315 -5.17267e-22 0.587317)
(9.54669 1.14786e-21 0.718787)
(9.61906 -3.03769e-23 0.697438)
(9.41567 1.62721e-21 0.824637)
(9.49933 6.49556e-22 0.808118)
(9.26972 1.03446e-21 0.931802)
(9.36481 -1.3117e-22 0.919529)
(9.10946 -2.31736e-21 1.04178)
(9.2163 2.38744e-21 1.03285)
(8.93523 -7.14871e-21 1.15668)
(9.05432 -2.40439e-21 1.15001)
(8.74699 -4.86254e-21 1.27892)
(8.87905 -4.72278e-21 1.27346)
(8.54428 -2.25881e-20 1.41109)
(8.69031 -1.94482e-22 1.40589)
(8.32625 -2.07301e-20 1.55575)
(8.4875 -1.19644e-20 1.55005)
(8.09158 1.15841e-21 1.71536)
(8.2696 -9.35678e-21 1.70863)
(7.83854 0 1.89223)
(8.03517 0 1.88424)
(7.56487 0 2.08844)
(7.78227 2.19479e-20 2.07929)
(7.26781 0 2.30584)
(7.50844 0 2.29607)
(6.94393 5.10887e-20 2.54593)
(7.21057 0 2.53659)
(6.58908 4.99824e-20 2.8097)
(6.88481 1.43727e-21 2.80257)
(6.19826 1.10864e-19 3.09739)
(6.52636 -4.91268e-20 3.09519)
(5.76555 1.08515e-19 3.40809)
(6.12935 5.75628e-20 3.41482)
(5.28409 6.06667e-20 3.73907)
(5.68657 -1.0515e-19 3.76049)
(4.74631 5.93797e-20 4.08499)
(5.1895 1.69001e-19 4.12906)
(4.1446 -2.62951e-19 4.43667)
(4.62839 -1.69243e-19 4.51403)
(3.47269 3.35838e-20 4.77983)
(3.99322 -1.2182e-20 4.9039)
(2.72846 2.83486e-19 5.09383)
(3.275 1.46533e-19 5.28025)
(1.91849 3.29287e-19 5.35309)
(2.47411 7.85186e-21 5.61561)
(1.06153 -5.50115e-20 5.48567)
(1.57972 3.15546e-19 5.87758)
(0.7234 -3.51133e-19 5.93458)
(9.98533 -1.49161e-23 0.138751)
(9.99428 1.56184e-23 0.0948236)
(9.95592 0 0.235309)
(9.97488 -2.82728e-24 0.19243)
(9.91107 1.25423e-22 0.337528)
(9.93942 1.89803e-24 0.295461)
(9.85011 1.22462e-22 0.44536)
(9.88805 3.58163e-25 0.405127)
(9.77282 -2.59155e-22 0.557418)
(9.821 1.56786e-23 0.520282)
(9.67945 -7.86115e-22 0.671892)
(9.73834 -1.69861e-23 0.638844)
(9.57062 -5.20504e-22 0.787416)
(9.64042 -1.07411e-21 0.758949)
(9.44713 -1.11798e-21 0.903593)
(9.52794 3.28198e-23 0.879599)
(9.3098 1.25192e-21 1.02111)
(9.40179 -1.66559e-22 1.00094)
(9.15928 2.24316e-21 1.14159)
(9.26279 3.6703e-22 1.12422)
(8.99598 -6.27398e-24 1.26732)
(9.11151 -1.56472e-22 1.25153)
(8.81993 -1.36628e-24 1.40099)
(8.94824 4.37015e-21 1.38554)
(8.6308 1.02891e-20 1.54546)
(8.77288 2.58743e-22 1.52917)
(8.42783 -5.60613e-22 1.70362)
(8.58499 1.00522e-20 1.68549)
(8.20986 -1.04051e-20 1.8783)
(8.38369 -1.03749e-20 1.85753)
(7.97524 2.21985e-20 2.07222)
(8.1677 3.31894e-22 2.04827)
(7.72182 2.17004e-20 2.28799)
(7.93524 8.91949e-23 2.26062)
(7.4468 0 2.52807)
(7.68394 0 2.49739)
(7.14663 -4.96232e-20 2.7947)
(7.41075 0 2.76135)
(6.81683 -9.82139e-20 3.08982)
(7.11172 -3.98021e-21 3.05511)
(6.4517 -1.01283e-19 3.4148)
(6.78171 -4.75622e-20 3.38102)
(6.0441 -1.57845e-19 3.77006)
(6.4141 -2.80458e-20 3.74094)
(5.58515 6.07846e-21 4.15435)
(6.00029 -7.28024e-21 4.13567)
(5.0641 -6.32751e-20 4.56364)
(5.52929 1.09241e-19 4.56415)
(4.46862 8.33611e-20 4.98948)
(4.98735 -1.9466e-19 5.02193)
(3.78594 1.02467e-19 5.41665)
(4.35814 2.34648e-19 5.49882)
(3.00599 -1.31053e-19 5.82018)
(3.62347 -1.23923e-19 5.9755)
(2.12796 -1.30407e-21 6.16523)
(2.77347 8.80763e-23 6.41831)
(1.16854 1.11814e-20 6.35662)
(1.77931 -8.90037e-21 6.78116)
(0.808131 3.55906e-20 6.893)
(9.98608 2.7486e-23 0.149481)
(9.99461 9.51137e-25 0.101638)
(9.95825 -8.7264e-25 0.253751)
(9.97633 -2.82728e-24 0.206389)
(9.91596 -1.23184e-22 0.364367)
(9.94299 1.89803e-24 0.317186)
(9.85863 -1.06241e-22 0.481202)
(9.89482 -1.23583e-22 0.435291)
(9.78606 2.5743e-22 0.602664)
(9.83208 1.56786e-23 0.559384)
(9.69853 -3.17621e-22 0.726731)
(9.75486 -4.17422e-23 0.68715)
(9.59666 -5.07579e-22 0.851876)
(9.66353 5.03542e-22 0.816526)
(9.48127 9.81865e-22 0.977625)
(9.55881 3.28197e-23 0.946391)
(9.35321 -1.04475e-21 1.10468)
(9.4416 9.25941e-22 1.07686)
(9.21319 -2.03885e-21 1.23478)
(9.31275 6.91435e-23 1.20923)
(9.06167 4.27312e-21 1.37037)
(9.17293 5.66439e-23 1.34573)
(8.89882 4.58179e-21 1.51437)
(9.02251 3.2632e-22 1.4892)
(8.72444 1.36644e-22 1.66992)
(8.86155 -2.80979e-22 1.64284)
(8.53794 2.2406e-25 1.8402)
(8.68976 1.04573e-21 1.80994)
(8.33834 4.85561e-22 2.02841)
(8.5065 -1.07217e-20 1.99388)
(8.12419 -2.1774e-20 2.23768)
(8.3107 3.31889e-22 2.19799)
(7.89352 -2.16068e-20 2.47116)
(8.10083 -4.20151e-20 2.42564)
(7.64371 0 2.73196)
(7.87481 -2.05543e-20 2.68023)
(7.37127 4.55986e-20 3.0232)
(7.62981 -2.35887e-20 2.96529)
(7.07163 4.61868e-20 3.34796)
(7.36205 3.85354e-21 3.28445)
(6.73872 2.58704e-20 3.7091)
(7.06642 8.92736e-20 3.64147)
(6.36449 1.22744e-19 4.10898)
(6.73599 1.85024e-20 4.04009)
(5.93828 9.70991e-20 4.54879)
(6.3613 1.0695e-19 4.48369)
(5.44612 -2.53908e-20 5.02737)
(5.92937 1.66079e-20 4.97456)
(4.87015 -3.86403e-20 5.53915)
(5.42252 -3.67807e-20 5.51244)
(4.18881 3.9725e-21 6.07074)
(4.81725 -1.29524e-20 6.09171)
(3.37912 8.87985e-21 6.59519)
(4.08274 -2.96154e-20 6.69642)
(2.42452 -7.67346e-21 7.06776)
(3.19133 8.69962e-20 7.29062)
(1.32984 1.62234e-20 7.36133)
(2.07977 -5.04171e-20 7.81291)
(0.944142 1.06301e-19 8.03567)
(9.98694 -2.94071e-23 0.15959)
(9.99497 -2.97627e-23 0.108033)
(9.96088 0 0.27108)
(9.97793 4.6345e-25 0.219463)
(9.92137 0 0.389523)
(9.9469 -6.178e-23 0.337482)
(9.86793 0 0.514731)
(9.90215 1.87901e-24 0.463407)
(9.8004 -2.84182e-22 0.644923)
(9.84399 0 0.595769)
(9.71908 7.85868e-22 0.77787)
(9.77254 -4.80113e-23 0.732028)
(9.62461 1.03827e-21 0.91188)
(9.68817 1.06115e-21 0.869923)
(9.51782 -1.23016e-23 1.0464)
(9.59163 9.5126e-22 1.00821)
(9.39959 2.0298e-21 1.18213)
(9.48384 1.70481e-22 1.14694)
(9.27071 2.16409e-21 1.32089)
(9.36572 -2.51821e-22 1.28747)
(9.13173 -3.88646e-21 1.46528)
(9.23799 2.0038e-22 1.43213)
(8.98295 -4.54269e-21 1.61843)
(9.10116 -4.56249e-21 1.58392)
(8.82433 6.43649e-22 1.78368)
(8.95545 1.12271e-21 1.74622)
(8.65552 -9.81278e-21 1.96453)
(8.80079 -9.09598e-21 1.92259)
(8.47578 -1.07479e-20 2.16447)
(8.6368 -1.34275e-21 2.11666)
(8.28396 -2.03921e-20 2.38705)
(8.46272 2.14056e-20 2.33209)
(8.07842 -4.07207e-20 2.63592)
(8.27739 -1.71549e-20 2.57268)
(7.85685 -4.4176e-20 2.91487)
(8.07915 1.42443e-20 2.84237)
(7.61614 -6.50147e-20 3.22793)
(7.86564 6.99448e-21 3.14543)
(7.35197 4.78575e-20 3.57945)
(7.6336 -2.16266e-20 3.48656)
(7.05839 8.11312e-20 3.97406)
(7.37842 5.60629e-20 3.87101)
(6.72709 3.67328e-21 4.41661)
(7.09357 -4.57356e-20 4.3047)
(6.34639 2.55355e-20 4.91178)
(6.76965 -1.25986e-20 4.7942)
(5.89977 4.64516e-21 5.46315)
(6.39295 -2.51935e-20 5.34647)
(5.36403 -1.08193e-20 6.07124)
(5.94322 8.01182e-21 5.96798)
(4.70722 -4.67527e-20 6.72956)
(5.39064 1.08635e-20 6.66237)
(3.88774 5.0118e-20 7.41597)
(4.68994 -4.66414e-20 7.42519)
(2.85919 4.16287e-20 8.0809)
(3.78664 1.70278e-19 8.23001)
(1.59043 4.19758e-20 8.55594)
(2.55427 -1.30143e-19 9.00924)
(1.18332 9.57378e-20 9.4569)
(9.98788 4.68988e-25 0.169013)
(9.99536 0 0.113968)
(9.96372 -6.20603e-23 0.287203)
(9.97965 6.93011e-25 0.231581)
(9.92718 -5.91404e-23 0.412877)
(9.95107 -2.66905e-24 0.356254)
(9.87785 1.85656e-24 0.545801)
(9.90993 1.20527e-22 0.489361)
(9.81563 2.3557e-22 0.684018)
(9.85657 0 0.629295)
(9.74084 2.40551e-22 0.825094)
(9.79113 2.3279e-22 0.773303)
(9.65412 9.72896e-22 0.967175)
(9.71403 -5.17557e-22 0.918933)
(9.55636 1.1249e-21 1.10961)
(9.62602 9.70408e-22 1.0648)
(9.44845 -2.11563e-21 1.2531)
(9.52806 2.97688e-22 1.21091)
(9.33126 -2.2102e-21 1.39951)
(9.42111 -2.13732e-21 1.35862)
(9.20544 -5.32398e-22 1.55158)
(9.306 1.90275e-21 1.51035)
(9.07145 1.16985e-21 1.71257)
(9.18336 -1.47146e-23 1.66922)
(8.92946 -8.73635e-21 1.88605)
(9.0536 1.15384e-21 1.83877)
(8.77937 -5.37986e-22 2.07572)
(8.9169 -1.01097e-20 2.02275)
(8.62076 3.10702e-20 2.28538)
(8.77318 9.52779e-21 2.225)
(8.45287 2.41969e-20 2.51891)
(8.62207 7.32732e-21 2.44946)
(8.2745 3.81506e-20 2.7804)
(8.46289 -1.05354e-20 2.70026)
(8.08393 6.53156e-20 3.07426)
(8.29454 -3.14617e-21 2.9818)
(7.87865 5.00619e-20 3.4054)
(8.1154 7.79397e-20 3.29901)
(7.65509 -1.25632e-20 3.77942)
(7.92307 -7.61006e-20 3.65751)
(7.40807 -7.18565e-20 4.20283)
(7.71403 -3.16057e-20 4.064)
(7.13 -6.16174e-20 4.6833)
(7.48303 -1.14904e-21 4.52655)
(6.80956 -6.33754e-20 5.22977)
(7.22212 -2.25458e-20 5.05518)
(6.42959 -2.14409e-20 5.8524)
(6.91899 6.78675e-20 5.6623)
(5.96369 2.97189e-20 6.56166)
(6.5541 -1.1491e-21 6.36328)
(5.37081 1.02697e-20 7.36567)
(6.09572 -1.24435e-19 7.17634)
(4.58724 7.6497e-20 8.26162)
(5.48849 1.26579e-19 8.12063)
(3.51805 -8.19837e-21 9.21743)
(4.64851 -4.97843e-20 9.20508)
(2.04121 -7.25761e-20 10.0326)
(3.34452 -2.2985e-20 10.4009)
(1.64709 3.62984e-21 11.342)
(9.98888 2.32305e-25 0.177704)
(9.99577 -2.87751e-23 0.119414)
(9.96674 6.0045e-23 0.302047)
(9.98145 -6.79785e-25 0.242687)
(9.9333 1.78471e-22 0.43434)
(9.95545 2.7342e-24 0.373429)
(9.88826 1.1723e-22 0.574302)
(9.91807 -6.56792e-25 0.51306)
(9.83155 0 0.719815)
(9.86968 -2.36561e-22 0.659848)
(9.76354 -5.34208e-22 0.868247)
(9.81047 -2.38988e-22 0.810841)
(9.68488 -5.02088e-22 1.01758)
(9.74087 -4.42535e-23 0.963392)
(9.59646 1.35481e-22 1.16705)
(9.66166 -9.73435e-22 1.11598)
(9.49925 2.47204e-22 1.31735)
(9.57384 -7.67524e-22 1.26854)
(9.39417 2.02323e-21 1.47036)
(9.47841 -2.50225e-22 1.42241)
(9.28201 2.39736e-21 1.62891)
(9.37629 5.96162e-22 1.58008)
(9.16338 -1.6933e-23 1.79639)
(9.26828 1.92336e-23 1.74474)
(9.03868 -3.53445e-22 1.9765)
(9.15497 -3.70309e-21 1.92005)
(8.9081 1.82501e-22 2.17314)
(9.03683 7.87103e-21 2.10988)
(8.7716 -1.42344e-20 2.39029)
(8.91409 0 2.31823)
(8.62889 -2.7606e-20 2.63211)
(8.78686 -1.40717e-20 2.54922)
(8.47936 -5.1748e-20 2.90303)
(8.65498 -1.30065e-20 2.8072)
(8.32201 1.03836e-20 3.20794)
(8.5181 -1.85153e-21 3.09691)
(8.15528 -4.98636e-20 3.55247)
(8.37551 2.89575e-20 3.4237)
(7.9768 -9.46401e-20 3.94327)
(8.22602 -4.12539e-20 3.79391)
(7.78292 3.93804e-20 4.38855)
(8.06775 0 4.21531)
(7.56802 3.7648e-20 4.89865)
(7.89766 4.86664e-21 4.69774)
(7.32316 1.09596e-19 5.48692)
(7.71088 6.41361e-20 5.25413)
(7.03387 8.76207e-20 6.17095)
(7.49937 4.30203e-20 5.902)
(6.6758 -1.56445e-19 6.97414)
(7.24949 -2.05167e-20 6.66587)
(6.2064 -5.17497e-21 7.92774)
(6.93729 -1.34805e-19 7.5814)
(5.54759 -2.20422e-21 9.07135)
(6.51528 1.25187e-19 8.70265)
(4.54795 -6.32461e-20 10.4509)
(5.90028 -5.44854e-20 10.1131)
(2.89949 5.36528e-20 11.9632)
(4.75957 -4.48441e-20 11.9499)
(2.6646 1.19961e-20 14.1007)
(9.98992 -2.93515e-23 0.185624)
(9.9962 2.48205e-23 0.124349)
(9.96989 -5.79498e-23 0.315552)
(9.98333 -2.62914e-24 0.252736)
(9.93969 -1.76433e-22 0.453827)
(9.95998 -7.29308e-25 0.388941)
(9.89908 -3.57265e-22 0.600124)
(9.9265 -1.19044e-23 0.534426)
(9.84807 -4.75578e-22 0.752168)
(9.88323 -1.75526e-23 0.687337)
(9.78702 2.53292e-22 0.90714)
(9.83042 -1.77895e-23 0.844531)
(9.71663 -5.26531e-22 1.06285)
(9.76853 3.61452e-23 1.00318)
(9.63781 -1.87366e-21 1.21845)
(9.69836 -1.98131e-21 1.1616)
(9.55157 -1.25861e-21 1.37455)
(9.62094 8.32919e-23 1.31966)
(9.45891 -1.66724e-21 1.53306)
(9.53734 -3.89349e-22 1.47867)
(9.36073 -1.78868e-21 1.69685)
(9.44856 1.5408e-22 1.64112)
(9.25783 -3.71068e-21 1.86938)
(9.35554 9.26315e-22 1.81025)
(9.15085 4.65518e-21 2.05448)
(9.25911 1.76084e-21 1.98978)
(9.0403 7.59461e-21 2.25611)
(9.15999 9.84039e-21 2.18366)
(8.92655 0 2.47839)
(9.05882 -4.01658e-21 2.39593)
(8.80983 5.34545e-22 2.72564)
(8.95614 0 2.63082)
(8.69021 3.69941e-20 3.00247)
(8.85244 1.7125e-20 2.89275)
(8.56758 1.70602e-20 3.31408)
(8.74816 2.0103e-20 3.18659)
(8.44157 3.67921e-20 3.66651)
(8.64368 -1.87401e-20 3.51789)
(8.3114 5.37952e-20 4.06711)
(8.53926 3.89043e-20 3.89329)
(8.17568 -3.44552e-20 4.52519)
(8.43508 0 4.32104)
(8.03194 3.20525e-20 5.053)
(8.33109 -6.37272e-20 4.81186)
(7.87594 -2.43253e-21 5.66723)
(8.22686 3.76038e-20 5.3802)
(7.70015 -6.56096e-20 6.3916)
(8.12138 -9.18349e-20 6.04644)
(7.49075 0 7.26147)
(8.01266 9.32468e-20 6.84073)
(7.22079 -1.39924e-21 8.33316)
(7.89766 0 7.81081)
(6.83257 7.03677e-20 9.70503)
(7.7707 3.81733e-21 9.03985)
(6.18082 -3.59388e-20 11.596)
(7.65963 4.87884e-20 10.6962)
(4.77475 -6.13099e-20 14.7044)
(7.66202 -8.93505e-20 13.257)
(6.93428 1.22546e-19 18.7644)
(-0.398702 2.63578e-19 0.193117)
(-0.196504 1.38896e-19 0.390411)
(-0.827859 -9.45811e-20 0.193499)
(-0.62104 5.59373e-19 0.40189)
(-1.25481 -5.35009e-19 0.182659)
(-1.05961 -5.29703e-19 0.391502)
(-1.65328 -1.13309e-19 0.160458)
(-1.4849 2.40488e-19 0.358739)
(-2.00189 -6.37158e-21 0.127648)
(-1.8708 3.32028e-19 0.308102)
(-2.27335 6.07598e-20 0.0863946)
(-2.19286 -1.13248e-19 0.235299)
(-2.44584 -5.19755e-20 0.0367616)
(-2.41727 -2.08193e-19 0.146439)
(-2.49472 0 -0.0200876)
(-2.52431 1.40556e-19 0.040569)
(-2.40446 0 -0.080227)
(-2.5047 -9.00441e-20 -0.0733713)
(-2.16868 -1.33965e-22 -0.140981)
(-2.32789 3.75401e-20 -0.18713)
(-1.77736 7.69323e-25 -0.197439)
(-2.0083 -1.1957e-20 -0.303201)
(-1.24801 1.40518e-22 -0.242977)
(-1.52585 -1.68245e-20 -0.400274)
(-0.607237 1.29567e-21 -0.274416)
(-0.924517 0 -0.472806)
(0.113222 6.7304e-22 -0.290741)
(-0.220561 1.31176e-21 -0.518718)
(0.878346 -6.65933e-22 -0.293423)
(0.530756 -1.16151e-21 -0.537534)
(1.65852 2.89593e-22 -0.285614)
(1.31709 -7.57751e-22 -0.534865)
(2.42926 5.84113e-22 -0.270089)
(2.10625 2.65147e-22 -0.515682)
(3.17132 1.99244e-22 -0.249383)
(2.8756 -2.40047e-22 -0.484586)
(3.87056 -4.78352e-23 -0.225764)
(3.60817 -3.1401e-22 -0.445705)
(4.51762 5.36753e-23 -0.200815)
(4.29266 -5.498e-23 -0.402615)
(5.10598 -1.06294e-23 -0.175707)
(4.92259 -4.22543e-23 -0.357391)
(5.63415 3.82712e-24 -0.151679)
(5.49376 1.39836e-23 -0.313218)
(6.10345 1.25326e-23 -0.129527)
(6.00353 1.89652e-23 -0.271716)
(6.51633 -6.97921e-26 -0.109504)
(6.45276 -7.36534e-24 -0.23339)
(6.87595 1.28478e-24 -0.0916632)
(6.84563 5.11121e-24 -0.198478)
(7.18625 -6.92508e-25 -0.0760128)
(7.18713 -6.84327e-25 -0.167211)
(7.45164 0 -0.0624695)
(7.48161 0 -0.139631)
(7.67656 -5.75144e-27 -0.050871)
(7.73306 -2.77316e-27 -0.115542)
(7.86542 -5.89058e-27 -0.041426)
(7.94537 3.13979e-27 -0.0947269)
(8.15815 -1.7293e-26 -0.0782597)
(-0.397938 4.29825e-19 0.601951)
(-0.195512 2.38498e-18 0.809916)
(-0.84658 1.37073e-19 0.601025)
(-0.638159 4.60225e-21 0.824602)
(-1.29024 2.37975e-19 0.570263)
(-1.1051 0 0.799979)
(-1.70789 6.84925e-19 0.508501)
(-1.55753 2.44135e-19 0.735478)
(-2.07041 2.29687e-19 0.415409)
(-1.9679 4.46601e-19 0.62857)
(-2.35354 -3.81611e-19 0.294336)
(-2.30907 8.33269e-20 0.48043)
(-2.53125 -1.96525e-20 0.147367)
(-2.54955 -7.65135e-19 0.296879)
(-2.57846 5.27698e-20 -0.0192256)
(-2.66557 2.40025e-19 0.0793078)
(-2.4774 -5.40354e-20 -0.193334)
(-2.64188 -1.71981e-19 -0.155891)
(-2.22231 2.60577e-20 -0.365726)
(-2.44976 1.36935e-19 -0.38986)