    1C
    1UUSER                                                              
    1UDATE              26.february.2021                                
    1UTIME              14:00:04                                        
    1UHOST                                                              
    1UPGM               CalculiX                                        
    1UVERSION           Version 2.16                             
    1UCOMPILETIME       Mo 25. Nov 18:56:47 CET 2019                    
    1UDIR                                                               
    1UDBN                                                               
    1UMAT    1EL                                                        
    2C                           126                                     1
 -1         1 5.00000E-02 0.00000E+00 0.00000E+00
 -1         2 0.00000E+00 0.00000E+00 0.00000E+00
 -1         3 0.00000E+00 0.00000E+00 5.00000E-02
 -1         4 5.00000E-02 0.00000E+00 5.00000E-02
 -1         5 5.00000E-02 3.00000E-01 0.00000E+00
 -1         6 0.00000E+00 3.00000E-01 0.00000E+00
 -1         7 0.00000E+00 3.00000E-01 5.00000E-02
 -1         8 5.00000E-02 3.00000E-01 5.00000E-02
 -1         9 0.00000E+00 0.00000E+00 1.00000E-01
 -1        10 5.00000E-02 0.00000E+00 1.00000E-01
 -1        11 0.00000E+00 3.00000E-01 1.00000E-01
 -1        12 5.00000E-02 3.00000E-01 1.00000E-01
 -1        13 0.00000E+00 0.00000E+00 1.50000E-01
 -1        14 5.00000E-02 0.00000E+00 1.50000E-01
 -1        15 0.00000E+00 3.00000E-01 1.50000E-01
 -1        16 5.00000E-02 3.00000E-01 1.50000E-01
 -1        17 0.00000E+00 0.00000E+00 2.00000E-01
 -1        18 5.00000E-02 0.00000E+00 2.00000E-01
 -1        19 0.00000E+00 3.00000E-01 2.00000E-01
 -1        20 5.00000E-02 3.00000E-01 2.00000E-01
 -1        21 0.00000E+00 0.00000E+00 2.50000E-01
 -1        22 5.00000E-02 0.00000E+00 2.50000E-01
 -1        23 0.00000E+00 3.00000E-01 2.50000E-01
 -1        24 5.00000E-02 3.00000E-01 2.50000E-01
 -1        25 0.00000E+00 0.00000E+00 3.00000E-01
 -1        26 5.00000E-02 0.00000E+00 3.00000E-01
 -1        27 0.00000E+00 3.00000E-01 3.00000E-01
 -1        28 5.00000E-02 3.00000E-01 3.00000E-01
 -1        29 0.00000E+00 0.00000E+00 3.50000E-01
 -1        30 5.00000E-02 0.00000E+00 3.50000E-01
 -1        31 0.00000E+00 3.00000E-01 3.50000E-01
 -1        32 5.00000E-02 3.00000E-01 3.50000E-01
 -1        33 0.00000E+00 0.00000E+00 4.00000E-01
 -1        34 5.00000E-02 0.00000E+00 4.00000E-01
 -1        35 0.00000E+00 3.00000E-01 4.00000E-01
 -1        36 5.00000E-02 3.00000E-01 4.00000E-01
 -1        37 0.00000E+00 0.00000E+00 4.50000E-01
 -1        38 5.00000E-02 0.00000E+00 4.50000E-01
 -1        39 0.00000E+00 3.00000E-01 4.50000E-01
 -1        40 5.00000E-02 3.00000E-01 4.50000E-01
 -1        41 0.00000E+00 0.00000E+00 5.00000E-01
 -1        42 5.00000E-02 0.00000E+00 5.00000E-01
 -1        43 0.00000E+00 3.00000E-01 5.00000E-01
 -1        44 5.00000E-02 3.00000E-01 5.00000E-01
 -1        45 0.00000E+00 0.00000E+00 5.50000E-01
 -1        46 5.00000E-02 0.00000E+00 5.50000E-01
 -1        47 0.00000E+00 3.00000E-01 5.50000E-01
 -1        48 5.00000E-02 3.00000E-01 5.50000E-01
 -1        49 0.00000E+00 0.00000E+00 6.00000E-01
 -1        50 5.00000E-02 0.00000E+00 6.00000E-01
 -1        51 0.00000E+00 3.00000E-01 6.00000E-01
 -1        52 5.00000E-02 3.00000E-01 6.00000E-01
 -1        53 0.00000E+00 0.00000E+00 6.50000E-01
 -1        54 5.00000E-02 0.00000E+00 6.50000E-01
 -1        55 0.00000E+00 3.00000E-01 6.50000E-01
 -1        56 5.00000E-02 3.00000E-01 6.50000E-01
 -1        57 0.00000E+00 0.00000E+00 7.00000E-01
 -1        58 5.00000E-02 0.00000E+00 7.00000E-01
 -1        59 0.00000E+00 3.00000E-01 7.00000E-01
 -1        60 5.00000E-02 3.00000E-01 7.00000E-01
 -1        61 0.00000E+00 0.00000E+00 7.50000E-01
 -1        62 5.00000E-02 0.00000E+00 7.50000E-01
 -1        63 0.00000E+00 3.00000E-01 7.50000E-01
 -1        64 5.00000E-02 3.00000E-01 7.50000E-01
 -1        65 0.00000E+00 0.00000E+00 8.00000E-01
 -1        66 5.00000E-02 0.00000E+00 8.00000E-01
 -1        67 0.00000E+00 3.00000E-01 8.00000E-01
 -1        68 5.00000E-02 3.00000E-01 8.00000E-01
 -1        69 0.00000E+00 0.00000E+00 8.50000E-01
 -1        70 5.00000E-02 0.00000E+00 8.50000E-01
 -1        71 0.00000E+00 3.00000E-01 8.50000E-01
 -1        72 5.00000E-02 3.00000E-01 8.50000E-01
 -1        73 0.00000E+00 0.00000E+00 9.00000E-01
 -1        74 5.00000E-02 0.00000E+00 9.00000E-01
 -1        75 0.00000E+00 3.00000E-01 9.00000E-01
 -1        76 5.00000E-02 3.00000E-01 9.00000E-01
 -1        77 0.00000E+00 0.00000E+00 9.50000E-01
 -1        78 5.00000E-02 0.00000E+00 9.50000E-01
 -1        79 0.00000E+00 3.00000E-01 9.50000E-01
 -1        80 5.00000E-02 3.00000E-01 9.50000E-01
 -1        81 0.00000E+00 0.00000E+00 1.00000E+00
 -1        82 5.00000E-02 0.00000E+00 1.00000E+00
 -1        83 0.00000E+00 3.00000E-01 1.00000E+00
 -1        84 5.00000E-02 3.00000E-01 1.00000E+00
 -1        85-5.00000E-02 0.00000E+00 0.00000E+00
 -1        86-5.00000E-02 0.00000E+00 5.00000E-02
 -1        87-5.00000E-02 3.00000E-01 0.00000E+00
 -1        88-5.00000E-02 3.00000E-01 5.00000E-02
 -1        89-5.00000E-02 0.00000E+00 1.00000E-01
 -1        90-5.00000E-02 3.00000E-01 1.00000E-01
 -1        91-5.00000E-02 0.00000E+00 1.50000E-01
 -1        92-5.00000E-02 3.00000E-01 1.50000E-01
 -1        93-5.00000E-02 0.00000E+00 2.00000E-01
 -1        94-5.00000E-02 3.00000E-01 2.00000E-01
 -1        95-5.00000E-02 0.00000E+00 2.50000E-01
 -1        96-5.00000E-02 3.00000E-01 2.50000E-01
 -1        97-5.00000E-02 0.00000E+00 3.00000E-01
 -1        98-5.00000E-02 3.00000E-01 3.00000E-01
 -1        99-5.00000E-02 0.00000E+00 3.50000E-01
 -1       100-5.00000E-02 3.00000E-01 3.50000E-01
 -1       101-5.00000E-02 0.00000E+00 4.00000E-01
 -1       102-5.00000E-02 3.00000E-01 4.00000E-01
 -1       103-5.00000E-02 0.00000E+00 4.50000E-01
 -1       104-5.00000E-02 3.00000E-01 4.50000E-01
 -1       105-5.00000E-02 0.00000E+00 5.00000E-01
 -1       106-5.00000E-02 3.00000E-01 5.00000E-01
 -1       107-5.00000E-02 0.00000E+00 5.50000E-01
 -1       108-5.00000E-02 3.00000E-01 5.50000E-01
 -1       109-5.00000E-02 0.00000E+00 6.00000E-01
 -1       110-5.00000E-02 3.00000E-01 6.00000E-01
 -1       111-5.00000E-02 0.00000E+00 6.50000E-01
 -1       112-5.00000E-02 3.00000E-01 6.50000E-01
 -1       113-5.00000E-02 0.00000E+00 7.00000E-01
 -1       114-5.00000E-02 3.00000E-01 7.00000E-01
 -1       115-5.00000E-02 0.00000E+00 7.50000E-01
 -1       116-5.00000E-02 3.00000E-01 7.50000E-01
 -1       117-5.00000E-02 0.00000E+00 8.00000E-01
 -1       118-5.00000E-02 3.00000E-01 8.00000E-01
 -1       119-5.00000E-02 0.00000E+00 8.50000E-01
 -1       120-5.00000E-02 3.00000E-01 8.50000E-01
 -1       121-5.00000E-02 0.00000E+00 9.00000E-01
 -1       122-5.00000E-02 3.00000E-01 9.00000E-01
 -1       123-5.00000E-02 0.00000E+00 9.50000E-01
 -1       124-5.00000E-02 3.00000E-01 9.50000E-01
 -1       125-5.00000E-02 0.00000E+00 1.00000E+00
 -1       126-5.00000E-02 3.00000E-01 1.00000E+00
 -3
    3C                            40                                     1
 -1         1    1    0    1
 -2         1         2         3         4         5         6         7         8
 -1         2    1    0    1
 -2         4         3         9        10         8         7        11        12
 -1         3    1    0    1
 -2        10         9        13        14        12        11        15        16
 -1         4    1    0    1
 -2        14        13        17        18        16        15        19        20
 -1         5    1    0    1
 -2        18        17        21        22        20        19        23        24
 -1         6    1    0    1
 -2        22        21        25        26        24        23        27        28
 -1         7    1    0    1
 -2        26        25        29        30        28        27        31        32
 -1         8    1    0    1
 -2        30        29        33        34        32        31        35        36
 -1         9    1    0    1
 -2        34        33        37        38        36        35        39        40
 -1        10    1    0    1
 -2        38        37        41        42        40        39        43        44
 -1        11    1    0    1
 -2        42        41        45        46        44        43        47        48
 -1        12    1    0    1
 -2        46        45        49        50        48        47        51        52
 -1        13    1    0    1
 -2        50        49        53        54        52        51        55        56
 -1        14    1    0    1
 -2        54        53        57        58        56        55        59        60
 -1        15    1    0    1
 -2        58        57        61        62        60        59        63        64
 -1        16    1    0    1
 -2        62        61        65        66        64        63        67        68
 -1        17    1    0    1
 -2        66        65        69        70        68        67        71        72
 -1        18    1    0    1
 -2        70        69        73        74        72        71        75        76
 -1        19    1    0    1
 -2        74        73        77        78        76        75        79        80
 -1        20    1    0    1
 -2        78        77        81        82        80        79        83        84
 -1        21    1    0    1
 -2         2        85        86         3         6        87        88         7
 -1        22    1    0    1
 -2         3        86        89         9         7        88        90        11
 -1        23    1    0    1
 -2         9        89        91        13        11        90        92        15
 -1        24    1    0    1
 -2        13        91        93        17        15        92        94        19
 -1        25    1    0    1
 -2        17        93        95        21        19        94        96        23
 -1        26    1    0    1
 -2        21        95        97        25        23        96        98        27
 -1        27    1    0    1
 -2        25        97        99        29        27        98       100        31
 -1        28    1    0    1
 -2        29        99       101        33        31       100       102        35
 -1        29    1    0    1
 -2        33       101       103        37        35       102       104        39
 -1        30    1    0    1
 -2        37       103       105        41        39       104       106        43
 -1        31    1    0    1
 -2        41       105       107        45        43       106       108        47
 -1        32    1    0    1
 -2        45       107       109        49        47       108       110        51
 -1        33    1    0    1
 -2        49       109       111        53        51       110       112        55
 -1        34    1    0    1
 -2        53       111       113        57        55       112       114        59
 -1        35    1    0    1
 -2        57       113       115        61        59       114       116        63
 -1        36    1    0    1
 -2        61       115       117        65        63       116       118        67
 -1        37    1    0    1
 -2        65       117       119        69        67       118       120        71
 -1        38    1    0    1
 -2        69       119       121        73        71       120       122        75
 -1        39    1    0    1
 -2        73       121       123        77        75       122       124        79
 -1        40    1    0    1
 -2        77       123       125        81        79       124       126        83
 -3
    1PSTEP                         1           1           2          
  100CL  101 1.10000E-01         126                     1    1           1
 -4  DISP        4    1
 -5  D1          1    2    1    0
 -5  D2          1    2    2    0
 -5  D3          1    2    3    0
 -5  ALL         1    2    0    0    1ALL
 -1         1 0.00000E+00 0.00000E+00 0.00000E+00
 -1         2 0.00000E+00 0.00000E+00 0.00000E+00
 -1         3 3.77656E-04 0.00000E+00 8.06582E-05
 -1         4 4.33366E-04 0.00000E+00-3.01697E-04
 -1         5 0.00000E+00 0.00000E+00 0.00000E+00
 -1         6 0.00000E+00 0.00000E+00 0.00000E+00
 -1         7 3.77563E-04 0.00000E+00 8.06694E-05
 -1         8 4.33507E-04 0.00000E+00-3.01698E-04
 -1         9 1.09320E-03 0.00000E+00 1.72439E-04
 -1        10 1.08443E-03 0.00000E+00-4.50678E-04
 -1        11 1.09317E-03 0.00000E+00 1.72445E-04
 -1        12 1.08452E-03 0.00000E+00-4.50685E-04
 -1        13 1.90583E-03 0.00000E+00 2.54763E-04
 -1        14 1.87877E-03 0.00000E+00-4.50989E-04
 -1        15 1.90577E-03 0.00000E+00 2.54777E-04
 -1        16 1.87887E-03 0.00000E+00-4.50981E-04
 -1        17 2.70175E-03 0.00000E+00 3.29141E-04
 -1        18 2.66001E-03 0.00000E+00-3.54412E-04
 -1        19 2.70173E-03 0.00000E+00 3.29153E-04
 -1        20 2.66015E-03 0.00000E+00-3.54416E-04
 -1        21 3.39407E-03 0.00000E+00 3.95614E-04
 -1        22 3.34873E-03 0.00000E+00-2.02453E-04
 -1        23 3.39398E-03 0.00000E+00 3.95608E-04
 -1        24 3.34881E-03 0.00000E+00-2.02452E-04
 -1        25 3.94941E-03 0.00000E+00 4.54140E-04
 -1        26 3.90788E-03 0.00000E+00-3.39922E-05
 -1        27 3.94935E-03 0.00000E+00 4.54121E-04
 -1        28 3.90797E-03 0.00000E+00-3.40201E-05
 -1        29 4.36845E-03 0.00000E+00 5.04816E-04
 -1        30 4.33490E-03 0.00000E+00 1.22146E-04
 -1        31 4.36843E-03 0.00000E+00 5.04795E-04
 -1        32 4.33503E-03 0.00000E+00 1.22126E-04
 -1        33 4.68769E-03 0.00000E+00 5.48746E-04
 -1        34 4.66104E-03 0.00000E+00 2.54791E-04
 -1        35 4.68763E-03 0.00000E+00 5.48729E-04
 -1        36 4.66113E-03 0.00000E+00 2.54785E-04
 -1        37 4.93236E-03 0.00000E+00 5.88371E-04
 -1        38 4.90984E-03 0.00000E+00 3.70996E-04
 -1        39 4.93230E-03 0.00000E+00 5.88364E-04
 -1        40 4.90992E-03 0.00000E+00 3.70988E-04
 -1        41 5.09514E-03 0.00000E+00 6.25934E-04
 -1        42 5.07797E-03 0.00000E+00 4.71904E-04
 -1        43 5.09509E-03 0.00000E+00 6.25940E-04
 -1        44 5.07806E-03 0.00000E+00 4.71910E-04
 -1        45 5.19114E-03 0.00000E+00 6.62068E-04
 -1        46 5.18218E-03 0.00000E+00 5.43386E-04
 -1        47 5.19107E-03 0.00000E+00 6.62080E-04
 -1        48 5.18225E-03 0.00000E+00 5.43396E-04
 -1        49 5.28019E-03 0.00000E+00 6.96089E-04
 -1        50 5.27731E-03 0.00000E+00 5.82492E-04
 -1        51 5.28014E-03 0.00000E+00 6.96096E-04
 -1        52 5.27739E-03 0.00000E+00 5.82492E-04
 -1        53 5.40244E-03 0.00000E+00 7.27454E-04
 -1        54 5.39941E-03 0.00000E+00 6.12546E-04
 -1        55 5.40241E-03 0.00000E+00 7.27447E-04
 -1        56 5.39952E-03 0.00000E+00 6.12569E-04
 -1        57 5.53453E-03 0.00000E+00 7.56697E-04
 -1        58 5.52751E-03 0.00000E+00 6.58644E-04
 -1        59 5.53442E-03 0.00000E+00 7.56696E-04
 -1        60 5.52751E-03 0.00000E+00 6.58687E-04
 -1        61 5.63617E-03 0.00000E+00 7.84104E-04
 -1        62 5.62615E-03 0.00000E+00 7.26665E-04
 -1        63 5.63609E-03 0.00000E+00 7.84113E-04
 -1        64 5.62619E-03 0.00000E+00 7.26698E-04
 -1        65 5.67735E-03 0.00000E+00 8.09366E-04
 -1        66 5.66752E-03 0.00000E+00 8.08924E-04
 -1        67 5.67729E-03 0.00000E+00 8.09334E-04
 -1        68 5.66766E-03 0.00000E+00 8.08893E-04
 -1        69 5.64002E-03 0.00000E+00 8.34708E-04
 -1        70 5.63071E-03 0.00000E+00 8.93241E-04
 -1        71 5.63987E-03 0.00000E+00 8.34728E-04
 -1        72 5.63062E-03 0.00000E+00 8.93082E-04
 -1        73 5.54170E-03 0.00000E+00 8.58955E-04
 -1        74 5.53205E-03 0.00000E+00 9.74317E-04
 -1        75 5.54171E-03 0.00000E+00 8.59043E-04
 -1        76 5.53210E-03 0.00000E+00 9.74415E-04
 -1        77 5.38159E-03 0.00000E+00 8.83083E-04
 -1        78 5.38884E-03 0.00000E+00 1.02703E-03
 -1        79 5.38127E-03 0.00000E+00 8.83038E-04
 -1        80 5.38883E-03 0.00000E+00 1.02687E-03
 -1        81 5.22271E-03 0.00000E+00 8.91488E-04
 -1        82 5.19622E-03 0.00000E+00 1.08328E-03
 -1        83 5.22321E-03 0.00000E+00 8.91485E-04
 -1        84 5.19588E-03 0.00000E+00 1.08347E-03
 -1        85 0.00000E+00 0.00000E+00 0.00000E+00
 -1        86 5.13885E-04 0.00000E+00 4.74095E-04
 -1        87 0.00000E+00 0.00000E+00 0.00000E+00
 -1        88 5.13942E-04 0.00000E+00 4.74087E-04
 -1        89 1.16403E-03 0.00000E+00 7.92954E-04
 -1        90 1.16402E-03 0.00000E+00 7.92961E-04
 -1        91 1.95281E-03 0.00000E+00 9.56491E-04
 -1        92 1.95280E-03 0.00000E+00 9.56508E-04
 -1        93 2.72497E-03 0.00000E+00 1.00884E-03
 -1        94 2.72498E-03 0.00000E+00 1.00886E-03
 -1        95 3.40290E-03 0.00000E+00 9.89838E-04
 -1        96 3.40284E-03 0.00000E+00 9.89833E-04
 -1        97 3.95100E-03 0.00000E+00 9.38377E-04
 -1        98 3.95099E-03 0.00000E+00 9.38371E-04
 -1        99 4.36816E-03 0.00000E+00 8.84099E-04
 -1       100 4.36819E-03 0.00000E+00 8.84083E-04
 -1       101 4.68732E-03 0.00000E+00 8.40439E-04
 -1       102 4.68732E-03 0.00000E+00 8.40421E-04
 -1       103 4.93220E-03 0.00000E+00 8.04382E-04
 -1       104 4.93221E-03 0.00000E+00 8.04384E-04
 -1       105 5.09814E-03 0.00000E+00 7.78647E-04
 -1       106 5.09818E-03 0.00000E+00 7.78659E-04
 -1       107 5.20020E-03 0.00000E+00 7.78813E-04
 -1       108 5.20022E-03 0.00000E+00 7.78831E-04
 -1       109 5.29240E-03 0.00000E+00 8.07159E-04
 -1       110 5.29244E-03 0.00000E+00 8.07178E-04
 -1       111 5.41154E-03 0.00000E+00 8.39721E-04
 -1       112 5.41162E-03 0.00000E+00 8.39714E-04
 -1       113 5.53746E-03 0.00000E+00 8.51789E-04
 -1       114 5.53752E-03 0.00000E+00 8.51773E-04
 -1       115 5.63316E-03 0.00000E+00 8.37971E-04
 -1       116 5.63326E-03 0.00000E+00 8.37956E-04
 -1       117 5.67131E-03 0.00000E+00 8.07905E-04
 -1       118 5.67148E-03 0.00000E+00 8.07906E-04
 -1       119 5.63561E-03 0.00000E+00 7.78039E-04
 -1       120 5.63578E-03 0.00000E+00 7.78211E-04
 -1       121 5.53556E-03 0.00000E+00 7.54073E-04
 -1       122 5.53579E-03 0.00000E+00 7.54020E-04
 -1       123 5.39423E-03 0.00000E+00 7.40106E-04
 -1       124 5.39448E-03 0.00000E+00 7.40069E-04
 -1       125 5.17138E-03 0.00000E+00 7.58795E-04
 -1       126 5.17110E-03 0.00000E+00 7.58735E-04
 -3
    1PSTEP                         2           1           2          
  100CL  101 1.10000E-01         126                     1    1           1
 -4  STRESS      6    1
 -5  SXX         1    4    1    1
 -5  SYY         1    4    2    2
 -5  SZZ         1    4    3    3
 -5  SXY         1    4    1    2
 -5  SYZ         1    4    2    3
 -5  SZX         1    4    3    1
 -1         1-1.36668E+03-1.38792E+03-3.21149E+03-3.44722E-05 9.27820E-05 1.30700E+03
 -1         2 3.93671E+02 3.78524E+02 8.73589E+02-8.83105E-06-6.14273E-05 1.16747E+03
 -1         3 1.17025E+01 2.33922E+02 7.71207E+02-4.77726E-02 5.59314E-03 4.93159E+02
 -1         4-3.99344E+02-7.62353E+02-2.12631E+03 7.24991E-02-4.56687E-04 4.81053E+02
 -1         5-1.36667E+03-1.38792E+03-3.21149E+03-3.46144E-05 9.27858E-05 1.30743E+03
 -1         6 3.93708E+02 3.78572E+02 8.73703E+02-8.81413E-06-6.14272E-05 1.16718E+03
 -1         7 1.21803E+01 2.34129E+02 7.71435E+02-4.77727E-02 5.59314E-03 4.93125E+02
 -1         8-3.96819E+02-7.61278E+02-2.12526E+03 7.24999E-02-4.56668E-04 4.81152E+02
 -1         9 5.57877E+01 2.63075E+02 8.24258E+02-1.52688E-02 3.29323E-03 4.44555E+02
 -1        10-3.64294E+02-3.43237E+02-7.76516E+02 4.61634E-02-3.66057E-03 3.02841E+02
 -1        11 5.62986E+01 2.63297E+02 8.24488E+02-1.52689E-02 3.29324E-03 4.44582E+02
 -1        12-3.62982E+02-3.42660E+02-7.75908E+02 4.61637E-02-3.66060E-03 3.02725E+02
 -1        13 5.64037E+01 2.43560E+02 7.58891E+02-3.12081E-02 6.95820E-03 3.15641E+02
 -1        14 2.09997E+01 1.48833E+02 4.77606E+02 4.88052E-02 4.42624E-03 2.56223E+02
 -1        15 5.69716E+01 2.43811E+02 7.59161E+02-3.12082E-02 6.95820E-03 3.15641E+02
 -1        16 2.26903E+01 1.49562E+02 4.78346E+02 4.88056E-02 4.42626E-03 2.56282E+02
 -1        17 5.72488E+01 2.22316E+02 6.86296E+02-1.04291E-02 6.30157E-03 1.97388E+02
 -1        18 2.04497E+02 4.27471E+02 1.22698E+03 7.27080E-02-1.99712E-03 1.66131E+02
 -1        19 5.79101E+01 2.22574E+02 6.86494E+02-1.04292E-02 6.30158E-03 1.97298E+02
 -1        20 2.06220E+02 4.28199E+02 1.22769E+03 7.27086E-02-1.99716E-03 1.66037E+02
 -1        21 5.61348E+01 1.98069E+02 6.05573E+02-4.58735E-02-3.13708E-03 8.88035E+01
 -1        22 3.10368E+02 5.64719E+02 1.58157E+03 3.63971E-02 3.98878E-04 8.78246E+01
 -1        23 5.67451E+01 1.98291E+02 6.05698E+02-4.58736E-02-3.13706E-03 8.87519E+01
 -1        24 3.12030E+02 5.65399E+02 1.58218E+03 3.63973E-02 3.98869E-04 8.77730E+01
 -1        25 5.71699E+01 1.74570E+02 5.25562E+02-2.95328E-02-9.59457E-03 5.40772E+00
 -1        26 3.39592E+02 5.79620E+02 1.60194E+03 5.05447E-02-1.44110E-02 2.15874E+01
 -1        27 5.77334E+01 1.74793E+02 5.25743E+02-2.95329E-02-9.59458E-03 5.48105E+00
 -1        28 3.41224E+02 5.80291E+02 1.60254E+03 5.05451E-02-1.44110E-02 2.16440E+01
 -1        29 6.10595E+01 1.54656E+02 4.54888E+02-9.33159E-03-1.04336E-02-3.49993E+01
 -1        30 3.27391E+02 5.24802E+02 1.42933E+03 6.62249E-02-1.02739E-02-1.45970E+01
 -1        31 6.16125E+01 1.54896E+02 4.55134E+02-9.33161E-03-1.04336E-02-3.50104E+01
 -1        32 3.29023E+02 5.25528E+02 1.43012E+03 6.62254E-02-1.02739E-02-1.46201E+01
 -1        33 6.41058E+01 1.39862E+02 4.02392E+02-3.09089E-02-8.61220E-03-3.25207E+01
 -1        34 3.00223E+02 4.58964E+02 1.23510E+03 4.35788E-02-3.25098E-03-1.73216E+01
 -1        35 6.45961E+01 1.40090E+02 4.02663E+02-3.09090E-02-8.61219E-03-3.25663E+01
 -1        36 3.01810E+02 4.59659E+02 1.23583E+03 4.35791E-02-3.25100E-03-1.73652E+01
 -1        37 6.46469E+01 1.30668E+02 3.71295E+02-2.98338E-02-3.35756E-03-3.93227E+01
 -1        38 2.65462E+02 4.01198E+02 1.07608E+03 4.19494E-02-3.84973E-03-2.57916E+01
 -1        39 6.50647E+01 1.30878E+02 3.71577E+02-2.98338E-02-3.35756E-03-3.93121E+01
 -1        40 2.66994E+02 4.01870E+02 1.07680E+03 4.19497E-02-3.84974E-03-2.57855E+01
 -1        41 6.45467E+01 1.25415E+02 3.53985E+02-2.23898E-02 3.25074E-03-7.34876E+01
 -1        42 2.16086E+02 3.20469E+02 8.54957E+02 4.72135E-02 3.03401E-03-5.41643E+01
 -1        43 6.48921E+01 1.25589E+02 3.54218E+02-2.23899E-02 3.25075E-03-7.35140E+01
 -1        44 2.17585E+02 3.21134E+02 8.55678E+02 4.72138E-02 3.03401E-03-5.41857E+01
 -1        45 6.64831E+01 1.21349E+02 3.38481E+02-3.54378E-02 6.56121E-03-7.73271E+01
 -1        46 1.60364E+02 2.14881E+02 5.57179E+02 3.57388E-02 5.24721E-03-5.82160E+01
 -1        47 6.67348E+01 1.21457E+02 3.38589E+02-3.54378E-02 6.56122E-03-7.73558E+01
 -1        48 1.61843E+02 2.15507E+02 5.57787E+02 3.57391E-02 5.24722E-03-5.82357E+01
 -1        49 7.14883E+01 1.17172E+02 3.19529E+02-2.75681E-02 3.23497E-03-2.03389E+01
 -1        50 1.30405E+02 1.47399E+02 3.61443E+02 4.37410E-02-3.00814E-05-1.51123E+01
 -1        51 7.16570E+01 1.17218E+02 3.19516E+02-2.75681E-02 3.23496E-03-2.03084E+01
 -1        52 1.31929E+02 1.48068E+02 3.62149E+02 4.37413E-02-3.00726E-05-1.50852E+01
 -1        53 7.69285E+01 1.13215E+02 3.00818E+02-1.53073E-02-3.42080E-03 4.21116E+01
 -1        54 1.45420E+02 1.63058E+02 3.98725E+02 5.15921E-02 1.13982E-02 3.17394E+01
 -1        55 7.69848E+01 1.13229E+02 3.00808E+02-1.53073E-02-3.42080E-03 4.20670E+01
 -1        56 1.46922E+02 1.63757E+02 3.99558E+02 5.15924E-02 1.13982E-02 3.17007E+01
 -1        57 7.90716E+01 1.08814E+02 2.83938E+02-5.73540E-02-6.70782E-04 6.27498E+01
 -1        58 1.89547E+02 2.31916E+02 5.84807E+02 1.50996E-03 2.21150E-02 4.76521E+01
 -1        59 7.88164E+01 1.08726E+02 2.83899E+02-5.73540E-02-6.70791E-04 6.27647E+01
 -1        60 1.90804E+02 2.32468E+02 5.85390E+02 1.50997E-03 2.21151E-02 4.76900E+01
 -1        61 8.46524E+01 1.05776E+02 2.68144E+02-4.05704E-02 4.80444E-03 4.86723E+01
 -1        62 2.39544E+02 3.00830E+02 7.65341E+02 1.88660E-02 1.67162E-02 3.91120E+01
 -1        63 8.42200E+01 1.05551E+02 2.67825E+02-4.05704E-02 4.80439E-03 4.88250E+01
 -1        64 2.40620E+02 3.01193E+02 7.65474E+02 1.88661E-02 1.67162E-02 3.93867E+01
 -1        65 9.65988E+01 1.08078E+02 2.63842E+02-3.09732E-02-1.63521E-02 7.50438E+00
 -1        66 2.78586E+02 3.38929E+02 8.53785E+02 6.91511E-02-1.59945E-02 5.68504E+00
 -1        67 9.64097E+01 1.08012E+02 2.63811E+02-3.09731E-02-1.63521E-02 7.34545E+00
 -1        68 2.80247E+02 3.39387E+02 8.53652E+02 6.91516E-02-1.59946E-02 5.47656E+00
 -1        69 8.88449E+01 1.03521E+02 2.56339E+02-7.71729E-02 1.05472E-02-3.16081E+01
 -1        70 2.82011E+02 3.38938E+02 8.50306E+02-5.12002E-02-8.16395E-02-2.87893E+01
 -1        71 8.76440E+01 1.03164E+02 2.56350E+02-7.71725E-02 1.05474E-02-3.20102E+01
 -1        72 2.82850E+02 3.39466E+02 8.51232E+02-5.12002E-02-8.16396E-02-2.94657E+01
 -1        73 9.52219E+01 1.04874E+02 2.54598E+02 4.81548E-03 4.50379E-02-5.90365E+01
 -1        74 2.06978E+02 2.65422E+02 6.79453E+02 2.86527E-02 5.02229E-02-1.77138E+01
 -1        75 9.41775E+01 1.04342E+02 2.53866E+02 4.81539E-03 4.50377E-02-5.90594E+01
 -1        76 2.07467E+02 2.65626E+02 6.79647E+02 2.86528E-02 5.02229E-02-1.75461E+01
 -1        77 4.96635E+01 6.47524E+01 1.66140E+02-1.62421E-01-2.28082E-02-4.95007E+01
 -1        78 3.33501E+02 2.87017E+02 6.24626E+02-6.24474E-03-8.35976E-02-7.44427E+01
 -1        79 4.80256E+01 6.39314E+01 1.65037E+02-1.62420E-01-2.28085E-02-4.89356E+01
 -1        80 3.36991E+02 2.88628E+02 6.26516E+02-6.24530E-03-8.35974E-02-7.54129E+01
 -1        81 1.76821E+02 9.84120E+01 1.51767E+02 2.57460E-01-1.63042E-03 1.02415E+01
 -1        82-1.98386E+01 1.40848E+02 4.90145E+02-1.72773E-01 9.64703E-02-3.43479E+00
 -1        83 1.76701E+02 9.84638E+01 1.52076E+02 2.57459E-01-1.62770E-03 1.31416E+01
 -1        84-2.72255E+01 1.38610E+02 4.90075E+02-1.72767E-01 9.64703E-02-3.85910E+00
 -1        85 2.21951E+03 2.18986E+03 5.19403E+03 2.78217E-05 3.72101E-05 1.63026E+03
 -1        86 4.12147E+02 1.22548E+03 3.72641E+03 2.92478E-02-4.27095E-03 6.03135E+02
 -1        87 2.21948E+03 2.18983E+03 5.19394E+03 2.78586E-05 3.72070E-05 1.63044E+03
 -1        88 4.10559E+02 1.22481E+03 3.72576E+03 2.92476E-02-4.27094E-03 6.03190E+02
 -1        89 4.25275E+02 8.27883E+02 2.35770E+03-1.73786E-03 3.70079E-03 3.20128E+02
 -1        90 4.25046E+02 8.27819E+02 2.35771E+03-1.73785E-03 3.70079E-03 3.20026E+02
 -1        91 8.13240E+01 3.32227E+02 1.03238E+03-3.97043E-03 8.79736E-03 2.50544E+02
 -1        92 8.07947E+01 3.32023E+02 1.03223E+03-3.97042E-03 8.79736E-03 2.50557E+02
 -1        93-9.46535E+01 1.54409E+01 1.47017E+02 5.17412E-03 1.25025E-02 1.41569E+02
 -1        94-9.50342E+01 1.52490E+01 1.46759E+02 5.17410E-03 1.25025E-02 1.41457E+02
 -1        95-2.00270E+02-1.69564E+02-3.64665E+02-2.90857E-02-2.53862E-03 5.68688E+01
 -1        96-2.00694E+02-1.69784E+02-3.64977E+02-2.90856E-02-2.53861E-03 5.68320E+01
 -1        97-2.24698E+02-2.29667E+02-5.40314E+02-6.03803E-03-2.73138E-03-6.45146E+00
 -1        98-2.25213E+02-2.29903E+02-5.40582E+02-6.03801E-03-2.73138E-03-6.36248E+00
 -1        99-2.01470E+02-2.11770E+02-5.04026E+02 1.38826E-02-8.28598E-03-3.53227E+01
 -1       100-2.01984E+02-2.12007E+02-5.04298E+02 1.38826E-02-8.28598E-03-3.53174E+01
 -1       101-1.67350E+02-1.74641E+02-4.14579E+02-3.67460E-04-8.79817E-03-3.04334E+01
 -1       102-1.67950E+02-1.74875E+02-4.14757E+02-3.67459E-04-8.79817E-03-3.04509E+01
 -1       103-1.33997E+02-1.37725E+02-3.24926E+02 7.15465E-03 1.04279E-03-3.29884E+01
 -1       104-1.34706E+02-1.37990E+02-3.25102E+02 7.15463E-03 1.04279E-03-3.29569E+01
 -1       105-8.82085E+01-7.09450E+01-1.48197E+02 1.84921E-02 6.10458E-03-5.76822E+01
 -1       106-8.90285E+01-7.12748E+01-1.48476E+02 1.84921E-02 6.10458E-03-5.76847E+01
 -1       107-3.00378E+01 2.50668E+01 1.13742E+02 1.17332E-02 9.53042E-03-6.02306E+01
 -1       108-3.10108E+01 2.46594E+01 1.13357E+02 1.17331E-02 9.53042E-03-6.02326E+01
 -1       109 1.09820E+01 8.53395E+01 2.73838E+02 2.34677E-02 9.89147E-03-1.63421E+01
 -1       110 9.85294E+00 8.48218E+01 2.73241E+02 2.34676E-02 9.89146E-03-1.62830E+01
 -1       111 7.22151E+00 6.22706E+01 2.00568E+02 4.44644E-02-3.60785E-03 3.18275E+01
 -1       112 5.88614E+00 6.16519E+01 1.99841E+02 4.44641E-02-3.60784E-03 3.18465E+01
 -1       113-3.38895E+01-1.66082E+01-2.14311E+01 2.92201E-02-8.14493E-03 4.83918E+01
 -1       114-3.57260E+01-1.74062E+01-2.22545E+01 2.92199E-02-8.14491E-03 4.84639E+01
 -1       115-6.80701E+01-8.69864E+01-2.21769E+02 5.33174E-02-7.76406E-03 4.00667E+01
 -1       116-7.00038E+01-8.77939E+01-2.22526E+02 5.33169E-02-7.76396E-03 4.03233E+01
 -1       117-7.30685E+01-1.10374E+02-2.94623E+02 8.95517E-02 2.87779E-04 8.25511E+00
 -1       118-7.51687E+01-1.11028E+02-2.94702E+02 8.95507E-02 2.87755E-04 8.26254E+00
 -1       119-7.59214E+01-1.03466E+02-2.68790E+02 8.91830E-02 8.80545E-02-3.43298E+01
 -1       120-7.95420E+01-1.05089E+02-2.70579E+02 8.91814E-02 8.80539E-02-3.47204E+01
 -1       121-1.93383E+01-5.80244E+01-1.74047E+02 1.14325E-01-2.72855E-02-4.84304E+01
 -1       122-2.21213E+01-5.94917E+01-1.76154E+02 1.14324E-01-2.72850E-02-4.78790E+01
 -1       123-1.20541E+02-4.49302E+01-2.89370E+01 1.28715E-01-1.91134E-02-1.20517E+02
 -1       124-1.26659E+02-4.75623E+01-3.15901E+01 1.28713E-01-1.91135E-02-1.21318E+02
 -1       125 6.45995E+02 3.25904E+02 4.42633E+02-1.44797E-01-3.09209E-02-2.78158E+02
 -1       126 6.54369E+02 3.29419E+02 4.46008E+02-1.44799E-01-3.09215E-02-2.79630E+02
 -3
    1PSTEP                         3           1           2          
  100CL  101 1.10000E-01         126                     1    1           1
 -4  TOSTRAIN    6    1
 -5  EXX         1    4    1    1
 -5  EYY         1    4    2    2
 -5  EZZ         1    4    3    3
 -5  EXY         1    4    1    2
 -5  EYZ         1    4    2    3
 -5  EZX         1    4    3    1