/*--------------------------------*- C++ -*----------------------------------*\
| =========                 |                                                 |
| \\      /  F ield         | OpenFOAM: The Open Source CFD Toolbox           |
|  \\    /   O peration     | Version:  2012                                  |
|   \\  /    A nd           | Website:  www.openfoam.com                      |
|    \\/     M anipulation  |                                                 |
\*---------------------------------------------------------------------------*/
FoamFile
{
    version     2.0;
    format      ascii;
    class       volVectorField;
    location    "0.5";
    object      cellDisplacement;
}
// * * * * * * * * * * * * * * * * * * * * * * * * * * * * * * * * * * * * * //

dimensions      [0 1 0 0 0 0 0];


internalField   nonuniform List<vector> 
2790
(
(0.000148636 0 3.4191e-07)
(0.000432497 0 9.83037e-07)
(0.000732585 0 1.62533e-06)
(0.00107742 0 2.31094e-06)
(0.0014901 0 3.07312e-06)
(0.00199104 0 3.9411e-06)
(0.00259858 0 4.94475e-06)
(0.00332879 0 6.12009e-06)
(0.00419482 0 7.51635e-06)
(0.00520577 0 9.20468e-06)
(0.00636525 0 1.12893e-05)
(0.00766988 0 1.3924e-05)
(0.00910724 0 1.73359e-05)
(0.0106542 0 2.18401e-05)
(0.0122751 0 2.78926e-05)
(0.0139195 0 3.61155e-05)
(0.0155214 0 4.73429e-05)
(0.0169994 0 6.26591e-05)
(0.018259 0 8.33523e-05)
(0.0191977 0 0.000111131)
(0.0197094 0 0.00014804)
(0.0196939 0 0.000196511)
(0.0190672 0 0.000259436)
(0.0177749 0 0.000340305)
(0.0158067 0 0.000443539)
(0.0132148 0 0.000575088)
(0.0101285 0 0.000741754)
(0.00678648 0 0.000949093)
(0.00360244 0 0.00118408)
(0.00140546 0 0.00134876)
(0.000144412 0 1.01993e-06)
(0.000421343 0 2.93343e-06)
(0.000715424 0 4.85155e-06)
(0.00105395 0 6.89935e-06)
(0.00145983 0 9.17542e-06)
(0.00195344 0 1.1766e-05)
(0.00255322 0 1.47583e-05)
(0.00327553 0 1.82572e-05)
(0.00413399 0 2.24056e-05)
(0.00513835 0 2.74102e-05)
(0.00629308 0 3.35733e-05)
(0.00759604 0 4.13395e-05)
(0.0090363 0 5.13745e-05)
(0.0105927 0 6.45849e-05)
(0.0122321 0 8.23015e-05)
(0.0139071 0 0.000106333)
(0.0155552 0 0.000139106)
(0.0170982 0 0.000183819)
(0.0184448 0 0.000244098)
(0.0194974 0 0.000324916)
(0.020154 0 0.000432085)
(0.0203181 0 0.000572394)
(0.0199099 0 0.000753601)
(0.0188788 0 0.000984447)
(0.0172176 0 0.0012747)
(0.0149924 0 0.00163645)
(0.0123501 0 0.00207758)
(0.00956541 0 0.00259752)
(0.00709186 0 0.00316617)
(0.00571801 0 0.00366977)
(0.000143397 0 1.68626e-06)
(0.000419012 0 4.85181e-06)
(0.000712007 0 8.02586e-06)
(0.00104955 0 1.14127e-05)
(0.00145459 0 1.51731e-05)
(0.00194769 0 1.9446e-05)
(0.00254761 0 2.437e-05)
(0.00327124 0 3.01103e-05)
(0.00413295 0 3.68917e-05)
(0.00514343 0 4.50399e-05)
(0.00630829 0 5.50287e-05)
(0.00762737 0 6.75495e-05)
(0.00909173 0 8.36764e-05)
(0.010683 0 0.000104795)
(0.0123725 0 0.000133028)
(0.0141172 0 0.000171214)
(0.0158605 0 0.000223155)
(0.0175272 0 0.000293591)
(0.0190344 0 0.000388568)
(0.0202937 0 0.000515696)
(0.02121 0 0.000683783)
(0.0216954 0 0.000902913)
(0.0216795 0 0.00118416)
(0.0211228 0 0.0015391)
(0.0200276 0 0.00198024)
(0.0184614 0 0.00251711)
(0.0165872 0 0.00315139)
(0.0147058 0 0.00386808)
(0.0132279 0 0.0046033)
(0.0127593 0 0.00518276)
(0.000142635 0 2.33799e-06)
(0.000417157 0 6.72856e-06)
(0.000709324 0 1.1129e-05)
(0.00104626 0 1.5818e-05)
(0.00145106 0 2.10131e-05)
(0.00194456 0 2.68994e-05)
(0.002546 0 3.36579e-05)
(0.00327304 0 4.15009e-05)
(0.00414117 0 5.07174e-05)
(0.00516247 0 6.17288e-05)
(0.0063439 0 7.51441e-05)
(0.0076885 0 9.18172e-05)
(0.0091894 0 0.000113081)
(0.0108324 0 0.000140831)
(0.0125957 0 0.000177774)
(0.0144415 0 0.000227522)
(0.0163196 0 0.000294852)
(0.0181647 0 0.000385764)
(0.0199053 0 0.000508185)
(0.0214605 0 0.000671368)
(0.0227469 0 0.000886062)
(0.023688 0 0.00116414)
(0.0242246 0 0.00151794)
(0.0243285 0 0.00195918)
(0.0240167 0 0.00249729)
(0.023353 0 0.00313367)
(0.0224885 0 0.00386038)
(0.0217072 0 0.00463873)
(0.0213355 0 0.00537156)
(0.0217617 0 0.00586681)
(0.000142059 0 2.96988e-06)
(0.000415731 0 8.5477e-06)
(0.000707326 0 1.41327e-05)
(0.00104402 0 2.00716e-05)
(0.00144909 0 2.6632e-05)
(0.00194375 0 3.40361e-05)
(0.00254788 0 4.24952e-05)
(0.00328008 0 5.22516e-05)
(0.00415737 0 6.36345e-05)
(0.00519372 0 7.71325e-05)
(0.00639663 0 9.33611e-05)
(0.00777191 0 0.000113346)
(0.00931956 0 0.000138594)
(0.0110309 0 0.000171367)
(0.0128882 0 0.000214696)
(0.0148622 0 0.00027271)
(0.0169119 0 0.000350839)
(0.0189844 0 0.000455986)
(0.0210185 0 0.000596808)
(0.0229456 0 0.00078346)
(0.0246955 0 0.00102735)
(0.0262038 0 0.00134043)
(0.0274222 0 0.00173403)
(0.0283302 0 0.00221684)
(0.0289473 0 0.00279191)
(0.0293421 0 0.00345152)
(0.0296415 0 0.00417429)
(0.03002 0 0.00490127)
(0.0307099 0 0.005521)
(0.0318571 0 0.00586423)
(0.000141634 0 3.57683e-06)
(0.000414692 0 1.02938e-05)
(0.000705956 0 1.70099e-05)
(0.00104271 0 2.41325e-05)
(0.00144848 0 3.19705e-05)
(0.00194495 0 4.07731e-05)
(0.00255267 0 5.07675e-05)
(0.00329135 0 6.22049e-05)
(0.00417992 0 7.54246e-05)
(0.00523281 0 9.08839e-05)
(0.00646081 0 0.000109262)
(0.0078746 0 0.000131664)
(0.00947843 0 0.000159677)
(0.0112694 0 0.000195639)
(0.0132368 0 0.000242755)
(0.0153606 0 0.000305365)
(0.0176107 0 0.000389145)
(0.0199472 0 0.000501263)
(0.0223217 0 0.000650471)
(0.0246799 0 0.000846838)
(0.0269651 0 0.00110121)
(0.0291252 0 0.00142414)
(0.0311202 0 0.00182419)
(0.0329324 0 0.00230528)
(0.0345746 0 0.00286307)
(0.0360966 0 0.00348033)
(0.0375845 0 0.00412195)
(0.0391037 0 0.00472265)
(0.0407272 0 0.00518018)
(0.0423899 0 0.00537087)
(0.00014134 0 4.15414e-06)
(0.000414003 0 1.19529e-05)
(0.00070515 0 1.97363e-05)
(0.00104222 0 2.79637e-05)
(0.00144903 0 3.69763e-05)
(0.00194775 0 4.70388e-05)
(0.00255969 0 5.83786e-05)
(0.00330559 0 7.12331e-05)
(0.00420553 0 8.59082e-05)
(0.0052775 0 0.000102831)
(0.0065353 0 0.000122683)
(0.00799143 0 0.000146523)
(0.00965689 0 0.000175901)
(0.0115353 0 0.000213103)
(0.0136236 0 0.000261268)
(0.0159119 0 0.000324646)
(0.0183817 0 0.00040875)
(0.0210068 0 0.000520461)
(0.0237533 0 0.000667981)
(0.0265818 0 0.000860455)
(0.0294497 0 0.0011072)
(0.0323156 0 0.00141633)
(0.0351453 0 0.00179266)
(0.0379168 0 0.00223474)
(0.0406246 0 0.00273125)
(0.0432796 0 0.00325712)
(0.0458984 0 0.0037709)
(0.0484772 0 0.00420757)
(0.0508665 0 0.00448948)
(0.0528513 0 0.00454466)
(0.000141162 0 4.69772e-06)
(0.00041363 0 1.35128e-05)
(0.000704845 0 2.22909e-05)
(0.00104242 0 3.15341e-05)
(0.00145049 0 4.16063e-05)
(0.00195174 0 5.27759e-05)
(0.00256823 0 6.52554e-05)
(0.00332183 0 7.92479e-05)
(0.00423402 0 9.50042e-05)
(0.00532516 0 0.000112888)
(0.00661388 0 0.00013349)
(0.00811556 0 0.000157757)
(0.00984525 0 0.000187101)
(0.0118151 0 0.000223618)
(0.0140291 0 0.000270157)
(0.0164888 0 0.000330606)
(0.0191871 0 0.000409963)
(0.0221123 0 0.000514361)
(0.0252453 0 0.000650927)
(0.0285619 0 0.000827267)
(0.0320332 0 0.00105054)
(0.0356277 0 0.00132594)
(0.0393135 0 0.00165438)
(0.0430587 0 0.00202961)
(0.0468298 0 0.00243499)
(0.0505864 0 0.00284092)
(0.0542746 0 0.00320574)
(0.0577505 0 0.00347408)
(0.0607204 0 0.00359442)
(0.0628562 0 0.0035427)
(0.00014109 0 5.20426e-06)
(0.000413545 0 1.49636e-05)
(0.000704979 0 2.46569e-05)
(0.00104319 0 3.48195e-05)
(0.00145263 0 4.58281e-05)
(0.00195649 0 5.79436e-05)
(0.00257761 0 7.13492e-05)
(0.00333892 0 8.61953e-05)
(0.00426346 0 0.000102654)
(0.00537386 0 0.000120986)
(0.00669204 0 0.000141642)
(0.00823819 0 0.000165372)
(0.0100343 0 0.000193405)
(0.0120945 0 0.000227445)
(0.0144331 0 0.000269926)
(0.0170631 0 0.000324153)
(0.0199881 0 0.000394326)
(0.0232109 0 0.000485489)
(0.0267268 0 0.000603352)
(0.0305273 0 0.000753627)
(0.0345963 0 0.000941064)
(0.0389109 0 0.00116797)
(0.04344 0 0.00143194)
(0.0481378 0 0.00172337)
(0.0529374 0 0.00202306)
(0.0577396 0 0.00230127)
(0.0624108 0 0.00251852)
(0.0666275 0 0.00263862)
(0.0700207 0 0.00263346)
(0.0721812 0 0.00251533)
(0.000141118 0 5.67134e-06)
(0.000413726 0 1.62983e-05)
(0.000705503 0 2.68227e-05)
(0.00104442 0 3.78035e-05)
(0.00145524 0 4.96211e-05)
(0.00196162 0 6.25183e-05)
(0.00258712 0 7.66368e-05)
(0.00335575 0 9.20582e-05)
(0.00429203 0 0.000108855)
(0.00542081 0 0.000127154)
(0.00676706 0 0.000147225)
(0.00835558 0 0.000169581)
(0.0102114 0 0.000195102)
(0.0123568 0 0.000225113)
(0.014817 0 0.000261545)
(0.0176076 0 0.000306908)
(0.0207462 0 0.000364387)
(0.0242511 0 0.000437748)
(0.0281288 0 0.000531167)
(0.0323874 0 0.00064834)
(0.0370227 0 0.000791651)
(0.0420195 0 0.000961033)
(0.0473478 0 0.00115177)
(0.0529479 0 0.00135279)
(0.0587182 0 0.00154519)
(0.0645175 0 0.00170174)
(0.0700658 0 0.00179335)
(0.0749297 0 0.00179852)
(0.0786481 0 0.0017105)
(0.0807674 0 0.00156231)
(0.000141245 0 6.09746e-06)
(0.000414164 0 1.75125e-05)
(0.000706386 0 2.87813e-05)
(0.00104604 0 4.04774e-05)
(0.00145813 0 5.29761e-05)
(0.00196677 0 6.64935e-05)
(0.00259617 0 8.11193e-05)
(0.00337129 0 9.68543e-05)
(0.00431803 0 0.000113655)
(0.00546325 0 0.000131493)
(0.00683465 0 0.000150427)
(0.0084607 0 0.000170691)
(0.0103706 0 0.000192786)
(0.0125934 0 0.000217563)
(0.0151586 0 0.000246315)
(0.0180931 0 0.000280815)
(0.0214289 0 0.000323212)
(0.0251861 0 0.000375937)
(0.0293873 0 0.000441403)
(0.0340586 0 0.000521553)
(0.0392057 0 0.000616554)
(0.044819 0 0.00072484)
(0.0508744 0 0.000840479)
(0.0573019 0 0.000952875)
(0.0639961 0 0.001045)
(0.0707249 0 0.00109707)
(0.0770841 0 0.00109241)
(0.0825745 0 0.00102105)
(0.0866018 0 0.000890149)
(0.0886746 0 0.000738496)
(0.000141473 0 6.48205e-06)
(0.000414866 0 1.86047e-05)
(0.000707623 0 3.05307e-05)
(0.00104799 0 4.28398e-05)
(0.0014612 0 5.58948e-05)
(0.0019717 0 6.98778e-05)
(0.00260427 0 8.48195e-05)
(0.0033847 0 0.000100631)
(0.00434006 0 0.000117145)
(0.00549891 0 0.000134163)
(0.00689128 0 0.000151518)
(0.00854867 0 0.000169145)
(0.0105041 0 0.000187155)
(0.0127915 0 0.000205896)
(0.0154462 0 0.000226003)
(0.0185037 0 0.000248408)
(0.0220008 0 0.000274258)
(0.0259705 0 0.000304842)
(0.0304504 0 0.000340961)
(0.0354748 0 0.000383009)
(0.0410537 0 0.000429795)
(0.0471913 0 0.00047812)
(0.0538744 0 0.000522078)
(0.0610474 0 0.000552581)
(0.0685717 0 0.000557762)
(0.0761466 0 0.000527683)
(0.0833379 0 0.000455472)
(0.0895261 0 0.000343034)
(0.0939516 0 0.000203858)
(0.0960342 0 6.88499e-05)
(0.000141812 0 6.82542e-06)
(0.000415855 0 1.95759e-05)
(0.000709241 0 3.20735e-05)
(0.00105029 0 4.48964e-05)
(0.00146439 0 5.83886e-05)
(0.00197627 0 7.26934e-05)
(0.00261112 0 8.77779e-05)
(0.00339537 0 0.000103461)
(0.00435705 0 0.000119445)
(0.00552606 0 0.000135362)
(0.00693424 0 0.000150817)
(0.00861552 0 0.000165448)
(0.0106059 0 0.000178983)
(0.0129432 0 0.000191276)
(0.0156674 0 0.00020234)
(0.0188199 0 0.00021232)
(0.0224437 0 0.000221414)
(0.0265815 0 0.000229728)
(0.0312767 0 0.000236932)
(0.0365692 0 0.000242081)
(0.0424846 0 0.000243202)
(0.049044 0 0.00023611)
(0.0562383 0 0.000215566)
(0.0640151 0 0.000174747)
(0.0722244 0 0.000108562)
(0.0805912 0 1.45163e-05)
(0.0886573 0 -0.00010278)
(0.0957118 0 -0.00022956)
(0.100779 0 -0.000348576)
(0.103033 0 -0.000447677)
(0.000142282 0 7.12868e-06)
(0.000417179 0 2.04295e-05)
(0.000711305 0 3.34162e-05)
(0.00105301 0 4.66583e-05)
(0.00146778 0 6.04769e-05)
(0.00198048 0 7.49727e-05)
(0.00261661 0 9.00482e-05)
(0.00340303 0 0.00010543)
(0.00436843 0 0.000120697)
(0.00554365 0 0.000135312)
(0.00696185 0 0.000148667)
(0.00865864 0 0.000160122)
(0.0106721 0 0.000169047)
(0.013043 0 0.000174851)
(0.0158143 0 0.000176986)
(0.0190313 0 0.000174913)
(0.0227415 0 0.000168018)
(0.0269929 0 0.000155465)
(0.0318339 0 0.000135966)
(0.0373099 0 0.000107599)
(0.0434577 0 6.75608e-05)
(0.0503024 0 1.18761e-05)
(0.0578441 0 -6.38906e-05)
(0.0660393 0 -0.000163867)
(0.0747689 0 -0.000289361)
(0.0838016 0 -0.000436091)
(0.0927314 0 -0.000589574)
(0.100859 0 -0.000722705)
(0.107027 0 -0.00080723)
(0.109877 0 -0.000852597)
(0.000142908 0 7.39362e-06)
(0.000418908 0 2.11708e-05)
(0.000713924 0 3.45682e-05)
(0.0010563 0 4.81415e-05)
(0.00147151 0 6.21846e-05)
(0.00198449 0 7.67552e-05)
(0.00262087 0 9.16926e-05)
(0.00340772 0 0.000106636)
(0.00437409 0 0.000121048)
(0.00555137 0 0.00013424)
(0.00697346 0 0.000145409)
(0.00867693 0 0.000153668)
(0.0107012 0 0.000158078)
(0.0130882 0 0.000157667)
(0.015883 0 0.000151419)
(0.0191328 0 0.000138241)
(0.022887 0 0.000116881)
(0.0271961 0 8.57989e-05)
(0.0321105 0 4.30147e-05)
(0.0376776 0 -1.40222e-05)
(0.0439377 0 -8.8511e-05)
(0.0509186 0 -0.000184225)
(0.0586254 0 -0.000304873)
(0.0670258 0 -0.000453042)
(0.0760291 0 -0.000628164)
(0.0854606 0 -0.000823683)
(0.0950223 0 -0.00102218)
(0.104195 0 -0.00118753)
(0.111985 0 -0.00125921)
(0.116665 0 -0.00121019)
(0.00130848 0 -0.00142836)
(0.00441988 0 -0.00141074)
(0.00907637 0 -0.0012703)
(0.013963 0 -0.00110952)
(0.0182995 0 -0.000955569)
(0.0216969 0 -0.000813433)
(0.0240347 0 -0.000686325)
(0.0253423 0 -0.000571801)
(0.0257358 0 -0.000470806)
(0.0253609 0 -0.000383042)
(0.0243715 0 -0.000307732)
(0.0229168 0 -0.000243907)
(0.0211355 0 -0.000190714)
(0.01915 0 -0.00014665)
(0.0170651 0 -0.000110767)
(0.0149683 0 -8.20256e-05)
(0.0129298 0 -5.9401e-05)
(0.0110028 0 -4.19199e-05)
(0.00922466 0 -2.86645e-05)
(0.00761965 0 -1.88791e-05)
(0.00620049 0 -1.1835e-05)
(0.00496928 0 -6.92103e-06)
(0.00392008 0 -3.62002e-06)
(0.0030407 0 -1.51141e-06)
(0.00231416 0 -2.5943e-07)
(0.00171988 0 3.96187e-07)
(0.00123427 0 6.48233e-07)
(0.000832015 0 6.38224e-07)
(0.000485875 0 4.59424e-07)
(0.000164297 0 1.73731e-07)
(0.00536299 0 -0.00404501)
(0.0081327 0 -0.00392657)
(0.0122628 0 -0.00360145)
(0.0166059 0 -0.00319216)
(0.0204422 0 -0.00277476)
(0.0233931 0 -0.00237417)
(0.0253449 0 -0.00200509)
(0.0263343 0 -0.00167355)
(0.0264712 0 -0.00138023)
(0.0258909 0 -0.00112451)
(0.0247389 0 -0.000904462)
(0.0231566 0 -0.000717434)
(0.0212777 0 -0.000560693)
(0.0192202 0 -0.000431227)
(0.017083 0 -0.000325773)
(0.01495 0 -0.000241261)
(0.0128882 0 -0.000174704)
(0.0109479 0 -0.000123266)
(0.00916349 0 -8.4224e-05)
(0.00755752 0 -5.54229e-05)
(0.00614119 0 -3.46869e-05)
(0.00491511 0 -2.02277e-05)
(0.00387239 0 -1.05208e-05)
(0.00300008 0 -4.3283e-06)
(0.00228074 0 -6.60074e-07)
(0.00169355 0 1.25178e-06)
(0.00121446 0 1.98059e-06)
(0.000818343 0 1.93256e-06)
(0.000478292 0 1.38564e-06)
(0.000162427 0 5.22549e-07)
(0.0120776 0 -0.00619069)
(0.0146195 0 -0.00604299)
(0.0180611 0 -0.0055994)
(0.0215657 0 -0.00501057)
(0.0245563 0 -0.00438409)
(0.0267361 0 -0.00377225)
(0.0280239 0 -0.00319813)
(0.0284619 0 -0.00267806)
(0.0281431 0 -0.00221514)
(0.0271907 0 -0.00180929)
(0.0257377 0 -0.00145835)
(0.0239152 0 -0.00115892)
(0.0218451 0 -0.000906807)
(0.0196378 0 -0.000698104)
(0.0173854 0 -0.00052783)
(0.0151651 0 -0.000391146)
(0.0130382 0 -0.000283352)
(0.0110513 0 -0.000199994)
(0.00923287 0 -0.00013678)
(0.00760215 0 -8.99498e-05)
(0.00616921 0 -5.61923e-05)
(0.00493194 0 -3.26632e-05)
(0.00388195 0 -1.68725e-05)
(0.00300508 0 -6.81121e-06)
(0.00228309 0 -8.66583e-07)
(0.00169433 0 2.21452e-06)
(0.00121474 0 3.36751e-06)
(0.000818678 0 3.25175e-06)
(0.00047865 0 2.32118e-06)
(0.000162605 0 8.72986e-07)
(0.0207927 0 -0.00788667)
(0.0230435 0 -0.00771745)
(0.0256894 0 -0.00720109)
(0.0281685 0 -0.00649298)
(0.0300949 0 -0.0057186)
(0.0312983 0 -0.0049502)
(0.0317326 0 -0.0042217)
(0.0314385 0 -0.00355231)
(0.0305042 0 -0.00295029)
(0.0290417 0 -0.0024181)
(0.0271717 0 -0.00195482)
(0.0250123 0 -0.00155743)
(0.0226738 0 -0.00122155)
(0.0202542 0 -0.000942147)
(0.0178369 0 -0.000713404)
(0.0154903 0 -0.000529277)
(0.0132683 0 -0.000383728)
(0.0112102 0 -0.000270929)
(0.00934148 0 -0.000185401)
(0.00767638 0 -0.000121936)
(0.00621844 0 -7.61291e-05)
(0.00496325 0 -4.41085e-05)
(0.00390141 0 -2.2611e-05)
(0.00301665 0 -8.9272e-06)
(0.00228983 0 -8.629e-07)
(0.00169813 0 3.29115e-06)
(0.00121688 0 4.80851e-06)
(0.000820054 0 4.59379e-06)
(0.000479511 0 3.26469e-06)
(0.000162932 0 1.22511e-06)
(0.0307057 0 -0.00917363)
(0.0326025 0 -0.00897576)
(0.0344083 0 -0.00841262)
(0.0357851 0 -0.00762951)
(0.0365789 0 -0.00676466)
(0.0367113 0 -0.00589368)
(0.0361813 0 -0.00505676)
(0.0350439 0 -0.00427761)
(0.0333881 0 -0.00356899)
(0.0313193 0 -0.00293673)
(0.0289474 0 -0.00238211)
(0.0263787 0 -0.00190338)
(0.023711 0 -0.00149669)
(0.0210301 0 -0.0011568)
(0.0184086 0 -0.000877455)
(0.015905 0 -0.00065187)
(0.0135638 0 -0.00047306)
(0.0114169 0 -0.000334143)
(0.00948323 0 -0.000228553)
(0.00777176 0 -0.000150173)
(0.00628213 0 -9.36144e-05)
(0.0050061 0 -5.40457e-05)
(0.00392909 0 -2.74463e-05)
(0.00303354 0 -1.05057e-05)
(0.00230016 0 -5.56118e-07)
(0.00170439 0 4.52859e-06)
(0.0012207 0 6.32899e-06)
(0.000822422 0 5.97125e-06)
(0.00048088 0 4.22171e-06)
(0.000163418 0 1.58054e-06)
(0.0411715 0 -0.0100912)
(0.0426528 0 -0.00986022)
(0.0436192 0 -0.00927031)
(0.0439062 0 -0.00845)
(0.0435735 0 -0.00753801)
(0.0426172 0 -0.00660846)
(0.0410846 0 -0.00570351)
(0.0390532 0 -0.00485035)
(0.0366197 0 -0.00406576)
(0.0338882 0 -0.00335908)
(0.0309616 0 -0.00273428)
(0.0279363 0 -0.00219142)
(0.0248986 0 -0.00172772)
(0.0219225 0 -0.00133833)
(0.019069 0 -0.00101701)
(0.0163861 0 -0.000756623)
(0.0139087 0 -0.000549613)
(0.0116598 0 -0.000388378)
(0.00965152 0 -0.000265559)
(0.00788609 0 -0.00017425)
(0.00635847 0 -0.000108282)
(0.00505663 0 -6.21474e-05)
(0.00396207 0 -3.11578e-05)
(0.00305464 0 -1.14262e-05)
(0.00231351 0 1.2261e-07)
(0.00171277 0 5.96521e-06)
(0.00122595 0 7.94908e-06)
(0.000825683 0 7.39383e-06)
(0.00048273 0 5.19637e-06)
(0.000164059 0 1.94043e-06)
(0.0516665 0 -0.0106555)
(0.0526987 0 -0.0104093)
(0.05287 0 -0.00982096)
(0.0521484 0 -0.00899788)
(0.0507267 0 -0.00807124)
(0.0487125 0 -0.00711709)
(0.0461882 0 -0.0061761)
(0.0432577 0 -0.00527833)
(0.0400307 0 -0.00444404)
(0.0366147 0 -0.00368588)
(0.0331097 0 -0.00301052)
(0.0296044 0 -0.00241999)
(0.0261753 0 -0.00191285)
(0.0228852 0 -0.00148499)
(0.019784 0 -0.0011305)
(0.0169088 0 -0.00084222)
(0.0142847 0 -0.000612336)
(0.0119261 0 -0.00043283)
(0.00983717 0 -0.0002958)
(0.00801292 0 -0.000193728)
(0.00644408 0 -0.000119929)
(0.00511302 0 -6.82927e-05)
(0.00399848 0 -3.36149e-05)
(0.00307877 0 -1.16076e-05)
(0.00232918 0 1.2207e-06)
(0.00172285 0 7.6272e-06)
(0.0012324 0 9.68191e-06)
(0.000829715 0 8.8675e-06)
(0.000485013 0 6.19104e-06)
(0.000164844 0 2.30538e-06)
(0.0617766 0 -0.0109121)
(0.0623771 0 -0.0106805)
(0.0618321 0 -0.0101225)
(0.0602091 0 -0.00932497)
(0.0577681 0 -0.00840856)
(0.054755 0 -0.00745178)
(0.0512793 0 -0.00649714)
(0.0474748 0 -0.00557666)
(0.0434682 0 -0.00471341)
(0.0393739 0 -0.00392283)
(0.0352915 0 -0.00321392)
(0.0313043 0 -0.00259055)
(0.0274802 0 -0.00205257)
(0.023872 0 -0.00159675)
(0.0205188 0 -0.00121761)
(0.0174476 0 -0.000908261)
(0.0146735 0 -0.000660827)
(0.0122025 0 -0.000467148)
(0.0100312 0 -0.000319009)
(0.00814635 0 -0.000208449)
(0.00653283 0 -0.000128338)
(0.00517201 0 -7.23467e-05)
(0.00403776 0 -3.47854e-05)
(0.00310494 0 -1.10145e-05)
(0.00234645 0 2.76078e-06)
(0.00173419 0 9.52652e-06)
(0.00123978 0 1.15327e-05)
(0.00083439 0 1.0394e-05)
(0.000487674 0 7.20595e-06)
(0.000165757 0 2.67534e-06)
(0.0712343 0 -0.0109556)
(0.0714678 0 -0.0107594)
(0.0703023 0 -0.0102482)
(0.0678706 0 -0.00948919)
(0.0645176 0 -0.00859585)
(0.0605581 0 -0.00764724)
(0.0561847 0 -0.00669264)
(0.0515492 0 -0.00576396)
(0.0467976 0 -0.0048868)
(0.0420527 0 -0.00407865)
(0.0374145 0 -0.00335022)
(0.0329621 0 -0.00270677)
(0.0287557 0 -0.00214917)
(0.0248387 0 -0.00167494)
(0.02124 0 -0.0012791)
(0.0179778 0 -0.000955139)
(0.0150566 0 -0.00069525)
(0.0124759 0 -0.000491393)
(0.0102223 0 -0.000335082)
(0.00827756 0 -0.000218243)
(0.00662245 0 -0.00013356)
(0.00523206 0 -7.43305e-05)
(0.00407815 0 -3.46664e-05)
(0.0031321 0 -9.64684e-06)
(0.00236465 0 4.7415e-06)
(0.00174636 0 1.16606e-05)
(0.00124786 0 1.34982e-05)
(0.000839588 0 1.19702e-05)
(0.000490661 0 8.23902e-06)
(0.000166784 0 3.04954e-06)
(0.0799477 0 -0.0108937)
(0.0798929 0 -0.0107389)
(0.0781895 0 -0.0102736)
(0.0750172 0 -0.00954842)
(0.0708327 0 -0.00867751)
(0.0659818 0 -0.00773932)
(0.0607616 0 -0.00678841)
(0.0553476 0 -0.00585916)
(0.0499009 0 -0.00497803)
(0.0445502 0 -0.00416336)
(0.0393952 0 -0.00342658)
(0.0345105 0 -0.00277366)
(0.0299488 0 -0.00220612)
(0.0257446 0 -0.00172197)
(0.0219163 0 -0.00131654)
(0.0184766 0 -0.000983925)
(0.0154187 0 -0.00071636)
(0.0127316 0 -0.000505779)
(0.0104016 0 -0.000344225)
(0.00840228 0 -0.000223347)
(0.0067083 0 -0.000135663)
(0.00529052 0 -7.43209e-05)
(0.00411791 0 -3.3307e-05)
(0.00315919 0 -7.54015e-06)
(0.00238314 0 7.13841e-06)
(0.00175899 0 1.40124e-05)
(0.00125643 0 1.55668e-05)
(0.000845207 0 1.35886e-05)
(0.000493931 0 9.28579e-06)
(0.000167913 0 3.42645e-06)
(0.0879609 0 -0.0108191)
(0.0876808 0 -0.0107005)
(0.0854765 0 -0.0102636)
(0.0815827 0 -0.00955266)
(0.0765888 0 -0.00868963)
(0.0709047 0 -0.00775465)
(0.064878 0 -0.00680491)
(0.0587492 0 -0.0058785)
(0.0526719 0 -0.00499987)
(0.0467766 0 -0.00418684)
(0.0411596 0 -0.00345054)
(0.03589 0 -0.00279694)
(0.0310129 0 -0.00222769)
(0.0265543 0 -0.00174103)
(0.0225222 0 -0.00133219)
(0.0189189 0 -0.000995668)
(0.0157398 0 -0.000724796)
(0.0129622 0 -0.000511281)
(0.0105639 0 -0.00034709)
(0.00851582 0 -0.000224141)
(0.00678712 0 -0.000134892)
(0.00534492 0 -7.24675e-05)
(0.0041555 0 -3.08092e-05)
(0.00318529 0 -4.76352e-06)
(0.00240139 0 9.90527e-06)
(0.00177179 0 1.65515e-05)
(0.00126534 0 1.77187e-05)
(0.000851175 0 1.52368e-05)
(0.000497454 0 1.03394e-05)
(0.000169136 0 3.80381e-06)
(0.0953962 0 -0.010805)
(0.0949145 0 -0.0107054)
(0.0921632 0 -0.010262)
(0.0874968 0 -0.009532)
(0.0816749 0 -0.00865304)
(0.075203 0 -0.00771051)
(0.0684313 0 -0.00675813)
(0.0616413 0 -0.00583416)
(0.0550141 0 -0.00496273)
(0.0486517 0 -0.00415794)
(0.0426427 0 -0.00342942)
(0.0370496 0 -0.00278251)
(0.0319081 0 -0.00221856)
(0.0272319 0 -0.00173491)
(0.0230273 0 -0.00132794)
(0.0192924 0 -0.000992725)
(0.0160109 0 -0.000722286)
(0.0131573 0 -0.000508811)
(0.0107025 0 -0.000344367)
(0.00861367 0 -0.000221099)
(0.00685589 0 -0.000131574)
(0.00539326 0 -6.89899e-05)
(0.00418967 0 -2.73211e-05)
(0.00320969 0 -1.4165e-06)
(0.00241898 0 1.29761e-05)
(0.00178454 0 1.92348e-05)
(0.00127449 0 1.99264e-05)
(0.000857454 0 1.68979e-05)
(0.000501223 0 1.13907e-05)
(0.000170454 0 4.17864e-06)
(0.102438 0 -0.010908)
(0.10167 0 -0.0107848)
(0.0981825 0 -0.0102777)
(0.0926169 0 -0.00948752)
(0.0859296 0 -0.00856915)
(0.0786999 0 -0.00760857)
(0.071288 0 -0.00665392)
(0.0639353 0 -0.00573515)
(0.056841 0 -0.00487447)
(0.050107 0 -0.00408432)
(0.04379 0 -0.00336999)
(0.0379479 0 -0.00273623)
(0.0325974 0 -0.00218267)
(0.027751 0 -0.00170718)
(0.0234164 0 -0.00130717)
(0.0195809 0 -0.000977174)
(0.0162219 0 -0.000710445)
(0.0133101 0 -0.000499559)
(0.0108123 0 -0.000336871)
(0.00869232 0 -0.000214798)
(0.00691234 0 -0.000126114)
(0.00543406 0 -6.41642e-05)
(0.00421953 0 -2.303e-05)
(0.00323186 0 2.37525e-06)
(0.00243566 0 1.6268e-05)
(0.00179713 0 2.20086e-05)
(0.00128385 0 2.21557e-05)
(0.000864053 0 1.85513e-05)
(0.000505254 0 1.24286e-05)
(0.000171874 0 4.54728e-06)
(0.109303 0 -0.011136)
(0.107857 0 -0.0109059)
(0.103244 0 -0.010262)
(0.0966367 0 -0.00938107)
(0.089102 0 -0.00841608)
(0.0812108 0 -0.00744008)
(0.0732844 0 -0.00648922)
(0.065524 0 -0.00558452)
(0.0580924 0 -0.00474269)
(0.0510913 0 -0.00397297)
(0.0445595 0 -0.00327848)
(0.038545 0 -0.00266277)
(0.033057 0 -0.0021247)
(0.0280984 0 -0.00166224)
(0.0236779 0 -0.00127298)
(0.0197758 0 -0.000951372)
(0.0163658 0 -0.000690987)
(0.0134157 0 -0.000484798)
(0.0108898 0 -0.000325519)
(0.00874947 0 -0.000205896)
(0.00695498 0 -0.000118972)
(0.00546642 0 -5.83101e-05)
(0.00424457 0 -1.81541e-05)
(0.00325159 0 6.46513e-06)
(0.00245135 0 1.96839e-05)
(0.00180957 0 2.48098e-05)
(0.00129346 0 2.43671e-05)
(0.000871028 0 2.0173e-05)
(0.00050959 0 1.34401e-05)
(0.000173414 0 4.90548e-06)
(0.116106 0 -0.0114377)
(0.112738 0 -0.0109067)
(0.106579 0 -0.0100817)
(0.0990071 0 -0.00913304)
(0.0908471 0 -0.00815418)
(0.0825282 0 -0.00718895)
(0.0742986 0 -0.00626067)
(0.0663221 0 -0.00538452)
(0.0587174 0 -0.00457168)
(0.0515707 0 -0.00382899)
(0.0449278 0 -0.00316006)
(0.0388229 0 -0.00256692)
(0.0332686 0 -0.00204884)
(0.0282637 0 -0.00160373)
(0.0238046 0 -0.00122834)
(0.0198722 0 -0.000917662)
(0.016439 0 -0.000665697)
(0.0134718 0 -0.000465864)
(0.0109334 0 -0.000311292)
(0.00878411 0 -0.000195099)
(0.00698326 0 -0.000110651)
(0.00549008 0 -5.1777e-05)
(0.00426474 0 -1.29327e-05)
(0.00326892 0 1.06917e-05)
(0.00246618 0 2.3117e-05)
(0.001822 0 2.75693e-05)
(0.00130347 0 2.65167e-05)
(0.000878487 0 2.17367e-05)
(0.000514299 0 1.4411e-05)
(0.000175097 0 5.24849e-06)
(0.000143744 0 7.62662e-06)
(0.000421172 0 2.18175e-05)
(0.000717291 0 3.55582e-05)
(0.00106039 0 4.93854e-05)
(0.00147587 0 6.35634e-05)
(0.00198862 0 7.81068e-05)
(0.00262422 0 9.27946e-05)
(0.00340975 0 0.000107186)
(0.00437431 0 0.000120638)
(0.00554942 0 0.00013233)
(0.00696916 0 0.00014129)
(0.00867039 0 0.000146424)
(0.0106928 0 0.000146538)
(0.0130788 0 0.00014035)
(0.0158735 0 0.000126483)
(0.0191244 0 0.000103427)
(0.0228806 0 6.94691e-05)
(0.027192 0 2.26031e-05)
(0.0321078 0 -3.95803e-05)
(0.0376736 0 -0.00011995)
(0.0439271 0 -0.000221807)
(0.050893 0 -0.000348681)
(0.0585738 0 -0.00050378)
(0.066937 0 -0.000689156)
(0.0758987 0 -0.000904635)
(0.0853035 0 -0.00114704)
(0.0948967 0 -0.00141075)
(0.104252 0 -0.00169246)
(0.112555 0 -0.00201002)
(0.117601 0 -0.00237164)
(0.000144554 0 7.82478e-06)
(0.00042333 0 2.23632e-05)
(0.000720354 0 3.63786e-05)
(0.00106376 0 5.03845e-05)
(0.00147877 0 6.46143e-05)
(0.00199007 0 7.90409e-05)
(0.00262301 0 9.33885e-05)
(0.0034044 0 0.000107146)
(0.00436308 0 0.00011958)
(0.00553022 0 0.000129762)
(0.00693951 0 0.000136582)
(0.00862735 0 0.000138784)
(0.0106328 0 0.000134979)
(0.0129973 0 0.00012366)
(0.0157649 0 0.000103195)
(0.0189812 0 7.17992e-05)
(0.0226929 0 2.74855e-05)
(0.0269465 0 -3.20022e-05)
(0.0317866 0 -0.000109248)
(0.0372524 0 -0.000207172)
(0.0433738 0 -0.00032895)
(0.0501654 0 -0.000477794)
(0.0576174 0 -0.000656558)
(0.065682 0 -0.000867272)
(0.0742574 0 -0.00111095)
(0.0831625 0 -0.0013884)
(0.0921171 0 -0.0017034)
(0.100751 0 -0.00207184)
(0.108361 0 -0.00252513)
(0.113655 0 -0.00314152)
(0.000145159 0 7.98362e-06)
(0.000424872 0 2.27965e-05)
(0.000722261 0 3.70144e-05)
(0.00106518 0 5.11247e-05)
(0.00147855 0 6.53301e-05)
(0.00198667 0 7.95659e-05)
(0.00261445 0 9.35096e-05)
(0.00338818 0 0.000106592)
(0.00433605 0 0.000118012)
(0.00548843 0 0.000126754)
(0.00687806 0 0.000131615)
(0.0085401 0 0.000131222)
(0.010512 0 0.000124058)
(0.0128334 0 0.000108476)
(0.0155456 0 8.26977e-05)
(0.0186908 0 4.48005e-05)
(0.0223111 0 -7.3137e-06)
(0.0264472 0 -7.59555e-05)
(0.0311362 0 -0.000163676)
(0.0364079 0 -0.000273246)
(0.0422799 0 -0.000407549)
(0.0487517 0 -0.00056941)
(0.055796 0 -0.000761369)
(0.0633427 0 -0.000985511)
(0.0712687 0 -0.00124383)
(0.079363 0 -0.00153969)
(0.0873278 0 -0.00188064)
(0.0947345 0 -0.0022832)
(0.101061 0 -0.00278101)
(0.105396 0 -0.00346617)
(0.000145443 0 8.10151e-06)
(0.000425458 0 2.31137e-05)
(0.000722443 0 3.7462e-05)
(0.00106384 0 5.1606e-05)
(0.00147409 0 6.57196e-05)
(0.00197696 0 7.97056e-05)
(0.0025967 0 9.32044e-05)
(0.00335878 0 0.000105605)
(0.0042904 0 0.000116058)
(0.0054207 0 0.000123495)
(0.00678089 0 0.000126653)
(0.00840422 0 0.000124097)
(0.0103258 0 0.000114247)
(0.0125822 0 9.53961e-05)
(0.0152109 0 6.57207e-05)
(0.0182496 0 2.32774e-05)
(0.021734 0 -3.40015e-05)
(0.0256969 0 -0.000108323)
(0.0301663 0 -0.000202044)
(0.035161 0 -0.000317641)
(0.0406831 0 -0.000457579)
(0.0467156 0 -0.000624185)
(0.0532154 0 -0.00081964)
(0.0600863 0 -0.00104581)
(0.0671979 0 -0.00130511)
(0.0743274 0 -0.00160048)
(0.0811565 0 -0.00193716)
(0.0873023 0 -0.00232692)
(0.0922848 0 -0.00279243)
(0.0953972 0 -0.00337596)
(0.000145284 0 8.17715e-06)
(0.00042474 0 2.33121e-05)
(0.000720327 0 3.77196e-05)
(0.00105892 0 5.18311e-05)
(0.00146432 0 6.57942e-05)
(0.00195958 0 7.94859e-05)
(0.00256806 0 9.25211e-05)
(0.00331417 0 0.000104263)
(0.00422376 0 0.000113837)
(0.00532434 0 0.000120152)
(0.0066451 0 0.000121924)
(0.00821676 0 0.000117706)
(0.0100713 0 0.000105914)
(0.0122416 0 8.48565e-05)
(0.0147604 0 5.27492e-05)
(0.01766 0 7.72473e-06)
(0.0209685 0 -5.21454e-05)
(0.0247094 0 -0.000128837)
(0.0289005 0 -0.000224393)
(0.0335517 0 -0.000340923)
(0.0386469 0 -0.000480377)
(0.0441505 0 -0.000644391)
(0.0500127 0 -0.000834877)
(0.0561281 0 -0.00105304)
(0.062334 0 -0.00129977)
(0.0684297 0 -0.00157671)
(0.0741289 0 -0.00188668)
(0.0790823 0 -0.00223484)
(0.0828769 0 -0.0026288)
(0.0850141 0 -0.00307561)
(0.000144575 0 8.20977e-06)
(0.000422411 0 2.33902e-05)
(0.000715409 0 3.77873e-05)
(0.0010497 0 5.18047e-05)
(0.00144832 0 6.55672e-05)
(0.00193339 0 7.89339e-05)
(0.0025272 0 9.15059e-05)
(0.00325282 0 0.000102637)
(0.00413449 0 0.000111452)
(0.00519772 0 0.000116864)
(0.00646926 0 0.000117607)
(0.00797684 0 0.000112263)
(0.00974877 0 9.93003e-05)
(0.0118133 0 7.71041e-05)
(0.0141981 0 4.40047e-05)
(0.0169307 0 -1.7265e-06)
(0.02003 0 -6.18089e-05)
(0.0235093 0 -0.000137882)
(0.0273741 0 -0.000231556)
(0.0316285 0 -0.00034465)
(0.036249 0 -0.000478562)
(0.0411798 0 -0.000634128)
(0.0463532 0 -0.000812305)
(0.0516665 0 -0.00101347)
(0.0569655 0 -0.00123758)
(0.0620561 0 -0.00148452)
(0.066691 0 -0.00175407)
(0.0705786 0 -0.00204577)
(0.0733971 0 -0.00235751)
(0.0748185 0 -0.00268169)
(0.000143224 0 8.19907e-06)
(0.000418209 0 2.3348e-05)
(0.000707267 0 3.76672e-05)
(0.00103563 0 5.15334e-05)
(0.00142538 0 6.50533e-05)
(0.00189756 0 7.80758e-05)
(0.00247319 0 9.02001e-05)
(0.00317382 0 0.000100788)
(0.00402179 0 0.000108983)
(0.00504035 0 0.000113731)
(0.0062535 0 0.000113815)
(0.00768565 0 0.000107887)
(0.00936106 0 9.4507e-05)
(0.011303 0 7.21886e-05)
(0.0135318 0 3.94482e-05)
(0.0160718 0 -5.30235e-06)
(0.0189367 0 -6.35218e-05)
(0.0221269 0 -0.000136452)
(0.0256417 0 -0.000225368)
(0.0294675 0 -0.000331408)
(0.0335759 0 -0.000455374)
(0.0379105 0 -0.000597665)
(0.0423944 0 -0.000758346)