/*--------------------------------*- C++ -*----------------------------------*\
| =========                 |                                                 |
| \\      /  F ield         | OpenFOAM: The Open Source CFD Toolbox           |
|  \\    /   O peration     | Version:  2012                                  |
|   \\  /    A nd           | Website:  www.openfoam.com                      |
|    \\/     M anipulation  |                                                 |
\*---------------------------------------------------------------------------*/
FoamFile
{
    version     2.0;
    format      ascii;
    class       volVectorField;
    location    "0.5";
    object      Force;
}
// * * * * * * * * * * * * * * * * * * * * * * * * * * * * * * * * * * * * * //

dimensions      [1 1 -2 0 0 0 0];


internalField   uniform (0 0 0);

boundaryField
{
    inlet
    {
        type            calculated;
        value           uniform (0 0 0);
    }
    outlet
    {
        type            calculated;
        value           uniform (0 0 0);
    }
    flap
    {
        type            calculated;
        value           nonuniform List<vector> 
33
(
(2.16161 1.75469e-18 -0.0883876)
(2.14168 3.20731e-19 -0.179954)
(2.10791 1.69063e-18 -0.253613)
(2.06323 -1.67311e-18 -0.294082)
(2.01276 -8.25778e-21 -0.30819)
(1.95648 1.63293e-18 -0.30285)
(1.89376 -6.89522e-21 -0.283282)
(1.82444 3.21168e-18 -0.254706)
(1.7442 1.60398e-18 -0.222251)
(1.64632 4.96901e-21 -0.1895)
(1.5221 -2.64438e-18 -0.158386)
(1.3576 -1.60721e-18 -0.129617)
(1.12797 -1.60872e-18 -0.101382)
(0.782885 1.29535e-21 -0.0667088)
(0.188709 -1.6883e-18 -0.00997464)
(0.144798 2.14198e-21 1.52087)
(0.123619 -5.87747e-39 1.3155)
(0.0993801 7.92694e-19 1.07541)
(1.4628 1.50876e-18 -0.0601226)
(1.4719 1.54045e-18 -0.124779)
(1.48611 2.0649e-18 -0.179685)
(1.50876 -1.5988e-18 -0.215413)
(1.54177 -1.62175e-18 -0.236134)
(1.58685 -1.64531e-18 -0.245381)
(1.6436 1.65287e-18 -0.245578)
(1.70772 1.66667e-18 -0.238243)
(1.77232 1.66453e-18 -0.225907)
(1.82879 -1.66406e-18 -0.211107)
(1.87001 1.25882e-18 -0.196245)
(1.89092 3.31782e-18 -0.183666)
(1.88935 1.6551e-18 -0.175847)
(1.86821 -1.2668e-18 -0.172054)
(1.8307 4.61402e-19 -0.167275)
)
;
    }
    upperWall
    {
        type            calculated;
        value           uniform (0 0 0);
    }
    lowerWall
    {
        type            calculated;
        value           uniform (0 0 0);
    }
    frontAndBack
    {
        type            empty;
    }
}


// ************************************************************************* //
