/*--------------------------------*- C++ -*----------------------------------*\
| =========                 |                                                 |
| \\      /  F ield         | OpenFOAM: The Open Source CFD Toolbox           |
|  \\    /   O peration     | Version:  2012                                  |
|   \\  /    A nd           | Website:  www.openfoam.com                      |
|    \\/     M anipulation  |                                                 |
\*---------------------------------------------------------------------------*/
FoamFile
{
    version     2.0;
    format      ascii;
    class       surfaceScalarField;
    location    "0.5";
    object      meshPhi;
}
// * * * * * * * * * * * * * * * * * * * * * * * * * * * * * * * * * * * * * //

dimensions      [0 3 -1 0 0 0 0];
oriented        oriented;


internalField   nonuniform List<scalar> 
5457
(
5.74953e-05
9.15064e-08
0.000113224
2.52957e-07
0.000171067
3.72771e-07
0.000234184
4.46335e-07
0.000304796
4.72598e-07
0.000384379
4.54578e-07
0.000473691
4.00701e-07
0.000572719
3.26438e-07
0.000680621
2.55314e-07
0.000795763
2.19786e-07
0.000915744
2.6717e-07
0.00103729
4.65142e-07
0.00115623
9.00229e-07
0.00126755
1.67762e-06
0.00136527
2.92041e-06
0.00144252
4.76218e-06
0.00149165
7.33204e-06
0.00150554
1.05316e-05
0.00148039
1.42002e-05
0.00141336
1.83335e-05
0.00130308
2.26248e-05
0.00115288
2.64566e-05
0.00097006
2.91552e-05
0.000765907
3.0003e-05
0.000555538
2.83961e-05
0.000356618
2.39531e-05
0.000187259
1.65086e-05
6.30582e-05
6.3889e-06
-6.57647e-06
-4.70763e-06
-1.75958e-05
5.69252e-05
1.83347e-07
0.000112216
5.06665e-07
0.000169699
7.46254e-07
0.000232499
8.9285e-07
0.000302849
9.44069e-07
0.000382254
9.05431e-07
0.000471515
7.93185e-07
0.000570669
6.37748e-07
0.000678893
4.85443e-07
0.00079459
3.98118e-07
0.000915483
4.67219e-07
0.00103839
8.27677e-07
0.00115927
1.65121e-06
0.00127324
3.14529e-06
0.00137451
5.55172e-06
0.00145654
9.13318e-06
0.00151074
1.40703e-05
0.00152978
2.02653e-05
0.00151138
2.76208e-05
0.00145205
3.60184e-05
0.00134915
4.47357e-05
0.00120586
5.26315e-05
0.0010289
5.84295e-05
0.000828658
6.07997e-05
0.000619312
5.86971e-05
0.000417573
5.15447e-05
0.000241677
3.94244e-05
0.000108736
2.36186e-05
3.22908e-05
7.83427e-06
-4.72814e-06
5.65313e-05
2.74161e-07
0.000111542
7.57196e-07
0.00016882
1.1141e-06
0.000231479
1.33071e-06
0.000301778
1.40282e-06
0.000381273
1.33772e-06
0.000470842
1.15862e-06
0.000570611
9.10355e-07
0.000679745
6.61707e-07
0.000796699
4.97501e-07
0.000919474
5.47272e-07
0.00104507
1.01495e-06
0.00116955
2.15532e-06
0.00128836
4.2713e-06
0.00139589
7.70945e-06
0.00148584
1.28211e-05
0.00154857
1.9788e-05
0.00157775
2.87316e-05
0.00157221
3.97598e-05
0.00152659
5.2397e-05
0.00143752
6.55242e-05
0.00130777
7.76774e-05
0.00114325
8.70952e-05
0.000953235
9.20271e-05
0.000750088
9.11457e-05
0.000548359
8.38964e-05
0.000366721
7.11205e-05
0.000227065
5.52783e-05
0.000152531
4.09007e-05
2.97835e-05
5.63911e-05
3.62428e-07
0.000111332
1.00026e-06
0.000168604
1.46958e-06
0.000231339
1.75083e-06
0.000301836
1.83731e-06
0.000381723
1.73711e-06
0.000471989
1.47926e-06
0.000572911
1.12245e-06
0.000683553
7.60392e-07
0.000802361
4.88363e-07
0.000927889
4.62341e-07
0.00105741
9.66332e-07
0.00118713
2.33534e-06
0.0013128
4.95126e-06
0.00142895
9.2517e-06
0.00152918
1.56653e-05
0.00160452
2.44929e-05
0.00164997
3.60265e-05
0.00166261
5.0353e-05
0.00163603
6.68095e-05
0.00156742
8.41291e-05
0.00145847
0.000100591
0.00131414
0.000114068
0.00114274
0.000122486
0.000954994
0.000124301
0.000763348
0.000119218
0.000584487
0.000109206
0.000446898
9.79522e-05
0.000385843
8.97007e-05
8.34607e-05
5.63043e-05
4.47104e-07
0.000111219
1.23292e-06
0.00016854
1.80808e-06
0.000231426
2.14699e-06
0.00030223
2.23959e-06
0.000382662
2.09354e-06
0.000473862
1.74186e-06
0.000576421
1.25548e-06
0.000688984
7.35091e-07
0.000809917
2.93835e-07
0.000939001
1.47795e-07
0.00107372
6.34712e-07
0.00121027
2.13271e-06
0.0013448
5.0984e-06
0.00147202
1.00568e-05
0.00158574
1.75328e-05
0.00167855
2.79799e-05
0.00174525
4.17276e-05
0.00178094
5.8793e-05
0.00177984
7.85677e-05
0.00173922
9.97566e-05
0.00165947
0.000120435
0.0015445
0.000138231
0.00140158
0.000150789
0.00124085
0.000156392
0.00107511
0.000154803
0.000913332
0.000149043
0.000789956
0.000144422
0.000754323
0.000144551
0.000146751
5.62642e-05
5.27217e-07
0.000111196
1.45243e-06
0.000168615
2.12533e-06
0.000231717
2.51353e-06
0.000302915
2.60269e-06
0.000384008
2.39861e-06
0.000476282
1.93546e-06
0.000580625
1.28771e-06
0.000695412
5.51343e-07
0.000819299
-1.07249e-07
0.000952876
-3.94122e-07
0.00109363
1.33178e-08
0.00123831
1.51039e-06
0.00138343
4.64676e-06
0.00152402
1.00216e-05
0.00165452
1.82402e-05
0.00176852
2.98581e-05
0.00186031
4.52661e-05
0.00192447
6.45115e-05
0.00195597
8.70438e-05
0.00195143
0.000111581
0.00191016
0.000136127
0.00183477
0.000158185
0.0017312
0.000175245
0.00160917
0.000185569
0.00148138
0.000188666
0.00135548
0.000187221
0.0012691
0.000187191
0.00127542
0.000191642
0.000195999
5.62657e-05
6.0188e-07
0.000111253
1.65628e-06
0.000168812
2.41748e-06
0.000232183
2.84552e-06
0.000303843
2.92084e-06
0.000385679
2.64606e-06
0.000479082
2.05433e-06
0.000584975
1.21911e-06
0.000702374
2.50979e-07
0.000830805
-6.37553e-07
0.000969588
-1.14114e-06
0.00111641
-9.43669e-07
0.00127029
4.17238e-07
0.00142746
3.54867e-06
0.0015833
9.07581e-06
0.0017332
1.7674e-05
0.00187125
2.99777e-05
0.00199203
4.64368e-05
0.00209014
6.7172e-05
0.002161
9.17185e-05
0.00220071
0.000118856
0.00220754
0.000146618
0.00218265
0.000172483
0.00213009
0.000193877
0.00205766
0.000208958
0.00197481
0.000217242
0.0019062
0.000220109
0.0018842
0.000221501
0.00194207
0.000223465
0.000219946
5.63043e-05
6.70275e-07
0.000111381
1.84219e-06
0.000169116
2.68108e-06
0.000232796
3.13865e-06
0.000304966
3.18925e-06
0.000387603
2.83123e-06
0.000482192
2.09563e-06
0.000589675
1.05719e-06
0.00070997
-1.55853e-07
0.000843256
-1.32251e-06
0.000987515
-2.14868e-06
0.0011416
-2.2565e-06
0.00130557
-1.13046e-06
0.00147514
1.801e-06
0.00164785
7.19002e-06
0.00181927
1.57908e-05
0.00198385
2.82746e-05
0.00213707
4.51256e-05
0.00227359
6.65682e-05
0.00238993
9.22561e-05
0.00248164
0.000121062
0.00254602
0.000151139
0.00258305
0.00018003
0.0025942
0.000205196
0.00258522
0.000224598
0.00256663
0.000237383
0.00257275
0.000244019
0.00262086
0.000246339
0.00272408
0.000244453
0.000232513
5.63757e-05
7.31681e-07
0.000111571
2.00816e-06
0.000169507
2.91314e-06
0.000233524
3.38937e-06
0.000306235
3.4043e-06
0.000389707
2.95101e-06
0.000485538
2.05717e-06
0.000594815
7.97357e-07
0.000717964
-6.93096e-07
0.000855282
-2.19361e-06
0.00100532
-3.3987e-06
0.00116828
-3.88577e-06
0.0013426
-3.13405e-06
0.00152541
-5.73807e-07
0.00171613
4.46366e-06
0.00190936
1.27022e-05
0.00210266
2.48107e-05
0.00229114
4.13349e-05
0.00246903
6.26548e-05
0.00263586
8.85585e-05
0.00278634
0.00011799
0.00291667
0.000149325
0.00302659
0.000180226
0.00311332
0.000208438
0.00318502
0.000232016
0.00325848
0.000248992
0.00334817
0.000259125
0.00345551
0.00026384
0.00359233
0.000261983
0.000248898
5.64764e-05
7.85513e-07
0.000111814
2.15259e-06
0.000169971
3.11142e-06
0.000234337
3.59521e-06
0.000307596
3.56388e-06
0.00039191
3.00439e-06
0.000488995
1.93986e-06
0.000600113
4.42886e-07
0.00072602
-1.34923e-06
0.000867145
-3.21537e-06
0.00102314
-4.842e-06
0.00119438
-5.80823e-06
0.00137899
-5.59137e-06
0.00157667
-3.58285e-06
0.00178515
8.91888e-07
0.00200085
8.49753e-06
0.00222458
1.98754e-05
0.00244758
3.55634e-05
0.00266769
5.59506e-05
0.00288982
8.09394e-05
0.00310449
0.000109743
0.00330686
0.000141208
0.00349536
0.000173445
0.00366696
0.000204052
0.00383972
0.000230533
0.00402269
0.000250653
0.00420163
0.000264053
0.0043697
0.000271759
0.00453818
0.000272402
0.000265592
5.66036e-05
8.31328e-07
0.000112104
2.27429e-06
0.000170492
3.27434e-06
0.000235207
3.75471e-06
0.000309003
3.66734e-06
0.000394132
2.99237e-06
0.000492438
1.74741e-06
0.000605363
1.21482e-09
0.000733949
-2.11063e-06
0.000878916
-4.36947e-06
0.00104057
-6.46335e-06
0.00121916
-7.97938e-06
0.00141405
-8.40767e-06
0.00162557
-7.15266e-06
0.00185104
-3.5419e-06
0.00209055
3.09788e-06
0.00234298
1.34263e-05
0.0025985
2.79389e-05
0.00286366
4.68399e-05
0.00314331
7.01469e-05
0.00342108
9.75257e-05
0.00369427
0.000128134
0.00396296
0.000160566
0.00423575
0.00019199
0.00452973
0.000219064
0.00482846
0.000239957
0.00510648
0.000253926
0.00535167
0.00026105
0.00556333
0.000260791
0.000256638
5.67561e-05
8.68794e-07
0.000112435
2.37243e-06
0.00017106
3.40089e-06
0.000236114
3.86724e-06
0.000310413
3.71511e-06
0.000396303
2.91745e-06
0.000495747
1.48548e-06
0.000610365
-5.17367e-07
0.000741452
-2.9602e-06
0.000890027
-5.63022e-06
0.00105682
-8.2236e-06
0.00124241
-1.03419e-05
0.00144696
-1.14976e-05
0.00167063
-1.11272e-05
0.0019125
-8.60966e-06
0.00217348
-3.30845e-06
0.00245102
5.42549e-06
0.00274083
1.80943e-05
0.00305217
3.4908e-05
0.00338296
5.60906e-05
0.00371809
8.15265e-05
0.00406079
0.000110242
0.00441884
0.000140731
0.00480801
0.000170468
0.00522595
0.000196375
0.00564264
0.000215722
0.00603529
0.000225801
0.00637956
0.000225737
0.00665341
0.000217572
0.000208371
5.69342e-05
8.97681e-07
0.000112808
2.44645e-06
0.000171669
3.49055e-06
0.000237041
3.93281e-06
0.000311798
3.70853e-06
0.000398364
2.78327e-06
0.00049882
1.16138e-06
0.000614945
-1.10029e-06
0.000748258
-3.87773e-06
0.000900053
-6.96703e-06
0.00107142
-1.00772e-05
0.00126328
-1.28297e-05
0.00147634
-1.47673e-05
0.0017112
-1.53703e-05
0.00196807
-1.40796e-05
0.00224749
-1.03304e-05
0.00254879
-3.57629e-06
0.00287207
6.63614e-06
0.00322245
2.06199e-05
0.00359624
3.86845e-05
0.00398827
6.07662e-05
0.00440541
8.60398e-05
0.00485817
0.000113075
0.00535469
0.000139777
0.00588293
0.000163102
0.00642049
0.000178459
0.00694378
0.000180572
0.00741264
0.000167813
0.00777451
0.000146911
0.000129762
5.71407e-05
9.17854e-07
0.000113226
2.49605e-06
0.000172322
3.54318e-06
0.000237985
3.95201e-06
0.000313138
3.64964e-06
0.000400277
2.59435e-06
0.00050158
7.83433e-07
0.000618969
-1.73357e-06
0.000754153
-4.84111e-06
0.000908664
-8.34657e-06
0.00108389
-1.19751e-05
0.00128108
-1.53725e-05
0.0015014
-1.81172e-05
0.0017459
-1.97404e-05
0.00201551
-1.97526e-05
0.00231132
-1.76748e-05
0.00263416
-1.30633e-05
0.00298532
-5.54698e-06
0.00336764
5.15631e-06
0.0037813
1.9268e-05
0.00422782
3.67891e-05
0.00471362
5.72905e-05
0.00524619
7.97746e-05
0.00582804
0.000102264
0.00645221
0.000121059
0.0071054
0.000129984
0.0077642
0.000121417
0.00838355
9.22253e-05
0.00888507
5.42699e-05
3.48064e-05
5.7382e-05
9.2919e-07
0.000113698
2.52093e-06
0.000173029
3.55847e-06
0.000238955
3.92475e-06
0.000314437
3.53909e-06
0.000402029
2.35283e-06
0.000503992
3.56377e-07
0.000622363
-2.40834e-06
0.000759005
-5.8352e-06
0.000915648
-9.74446e-06
0.00109392
-1.38799e-05
0.00129536
-1.79143e-05
0.00152147
-2.14652e-05
0.00177373
-2.41184e-05
0.00205361
-2.54573e-05
0.0023627
-2.50936e-05
0.00270268
-2.26893e-05
0.00307568
-1.79745e-05
0.00348463
-1.07457e-05
0.00393209
-8.5011e-07
0.00442139
1.17496e-05
0.00495802
2.68234e-05
0.0055476
4.36007e-05
0.00619271
6.01817e-05
0.00689013
7.25754e-05
0.00763013
7.37432e-05
0.00839204
5.42476e-05
0.00912856
8.05541e-06
0.00973658
-5.40164e-05
-0.00014433
3.74882e-05
-9.23208e-05
0.000185895
-0.000115961
0.000450181
-0.000136832
0.000787036
-0.000149717
0.00114089
-0.000152835
0.00147102
-0.000148265
0.00175139
-0.000139464
0.00196916
-0.000128862
0.00212065
-0.000117686
0.00220739
-0.000106509
0.0022334
-9.54339e-05
0.00220553
-8.45239e-05
0.0021333
-7.40526e-05
0.00202497
-6.40967e-05
0.00188814
-5.46402e-05
0.00173104
-4.58206e-05
0.00156237
-3.78323e-05
0.00138892
-3.0713e-05
0.00121513
-2.4354e-05
0.00104625
-1.88469e-05
0.000886997
-1.42727e-05
0.000739878
-1.05432e-05
0.000606203
-7.5626e-06
0.000486713
-5.23981e-06
0.000381989
-3.48863e-06
0.000291143
-2.2173e-06
0.000210891
-1.33148e-06
0.000138126
-7.4019e-07
6.9441e-05
-3.59371e-07
-1.06292e-07
9.24633e-05
-0.00021389
0.000271714
-0.000247079
0.000561391
-0.000281751
0.000908316
-0.000302753
0.00125722
-0.000305491
0.0015771
-0.00029422
0.00184469
-0.000275834
0.00204914
-0.000254476
0.00218769
-0.000232315
0.00226252
-0.000210229
0.00227795
-0.000188566
0.00224033
-0.000167261
0.00215958
-0.000146379
0.00204439
-0.00012643
0.00190179
-0.000107703
0.00173961
-9.02727e-05
0.00156733
-7.44283e-05
0.00139206
-6.03571e-05
0.00121646
-4.79396e-05
0.00104584
-3.71699e-05
0.000885727
-2.81517e-05
0.000738235
-2.07963e-05
0.000604365
-1.49141e-05
0.000484798
-1.03281e-05
0.000380212
-6.87478e-06
0.000289669
-4.36973e-06
0.000209741
-2.62112e-06
0.000137352
-1.45384e-06
6.90958e-05
-7.05043e-07
-2.08522e-07
0.000232951
-0.000351237
0.00045893
-0.00039378
0.000783747
-0.000433537
0.00114161
-0.000455257
0.00148061
-0.000454179
0.00178217
-0.0004351
0.0020268
-0.000406962
0.0022069
-0.000375221
0.00232145
-0.000342464
0.00237375
-0.000309797
0.00236917
-0.000277737
0.00231399
-0.000246339
0.00221761
-0.000215646
0.0020891
-0.000186242
0.00193548
-0.000158609
0.00176399
-0.000132928
0.00158439
-0.000109477
0.0014044
-8.862e-05
0.00122501
-7.04541e-05
0.00105095
-5.47669e-05
0.000888765
-4.15293e-05
0.000740118
-3.07024e-05
0.00060529
-2.2022e-05
0.00048506
-1.52436e-05
0.000380082
-1.01409e-05
0.000289201
-6.43986e-06
0.000209263
-3.85802e-06
0.000137082
-2.13756e-06
6.89945e-05
-1.03611e-06
-3.0651e-07
0.000489199
-0.000506476
0.000762359
-0.000552939
0.00111236
-0.000588501
0.00147258
-0.000602699
0.00179882
-0.000594537
0.00207541
-0.000568015
0.00228839
-0.000531048
0.0024345
-0.000489763
0.00251543
-0.000447047
0.002536
-0.000404292
0.00250276
-0.00036216
0.00242281
-0.000320971
0.0023048
-0.000281015
0.00215747
-0.000242777
0.00198831
-0.000206751
0.00180441
-0.000173313
0.00161432
-0.000142785
0.00142555
-0.000115543
0.00124002
-9.18034e-05
0.00106135
-7.13863e-05
0.000896064
-5.41817e-05
0.000745797
-4.01014e-05
0.000609274
-2.8796e-05
0.000487553
-1.99362e-05
0.000381658
-1.32541e-05
0.00028997
-8.40941e-06
0.00020964
-5.03327e-06
0.000137368
-2.78696e-06
6.91511e-05
-1.35033e-06
-3.99484e-07
0.000886873
-0.000681189
0.0011945
-0.000719923
0.00155007
-0.000743128
0.0018991
-0.000744752
0.00220469
-0.000726726
0.00244675
-0.000692007
0.00261882
-0.000646801
0.00272188
-0.000596807
0.00276055
-0.000544903
0.00274144
-0.000492703
0.00267214
-0.000441103
0.00256065
-0.000390668
0.00241538
-0.000341883
0.00224459
-0.000295289
0.00205592
-0.000251426
0.0018565
-0.000210775
0.00165354
-0.000173745
0.00145347
-0.000140676
0.00125959
-0.00011173
0.00107498
-8.68342e-05
0.000905642
-6.59086e-05
0.000753254
-4.87977e-05
0.000614576
-3.50796e-05
0.000490825
-2.43084e-05
0.000383747
-1.61591e-05
0.000291199
-1.02481e-05
0.000210352
-6.12925e-06
0.000137819
-3.39088e-06
6.93803e-05
-1.64156e-06
-4.85439e-07
0.00144205
-0.000852224
0.00176152
-0.000878514
0.00209784
-0.000887156
0.00241632
-0.000875424
0.00268805
-0.000847306
0.0028847
-0.000805125
0.00300653
-0.000752898
0.00305828
-0.000695261
0.00304727
-0.000635057
0.00298182
-0.000574152
0.00287056
-0.000513743
0.00272209
-0.000454668
0.00254482
-0.000397624
0.00234673
-0.000343258
0.00213524
-0.000292172
0.00191732
-0.000244908
0.00169941
-0.000201922
0.00148715
-0.000163557
0.00128363
-0.000129935
0.00109201
-0.000100987
0.000917837
-7.66683e-05
0.000761775
-5.67715e-05
0.000620312
-4.08085e-05
0.000494645
-2.82918e-05
0.000386259
-1.88176e-05
0.000292785
-1.19318e-05
0.000211337
-7.13092e-06
0.000138423
-3.94038e-06
6.96792e-05
-1.90502e-06
-5.62841e-07
0.00214003
-0.000991083
0.00244982
-0.00101336
0.00274985
-0.001013
0.00301745
-0.000991752
0.00323649
-0.000955077
0.00337723
-0.000906697
0.00343983
-0.000848786
0.00343269
-0.000784511
0.00336561
-0.000716851
0.00324838
-0.000647989
0.00309045
-0.000579461
0.00290091
-0.000512411
0.00268814
-0.000447762
0.00245987
-0.000386289
0.00222308
-0.000328647
0.00198456
-0.000275422
0.00175003
-0.000227096
0.0015248
-0.000184002
0.00131153
-0.000146275
0.0011123
-0.000113777
0.000932133
-8.63934e-05
0.000770928
-6.39522e-05
0.000626157
-4.59531e-05
0.000498856
-3.18634e-05
0.000389128
-2.12055e-05
0.000294668
-1.34435e-05
0.000212542
-8.0274e-06
0.000139158
-4.42915e-06
7.00405e-05
-2.13743e-06
-6.30648e-07
0.00294436
-0.00110096
0.00323202
-0.00112555
0.0034919
-0.00112194
0.00369574
-0.00109586
0.00384188
-0.00105286
0.00391472
-0.000998453
0.00390812
-0.000934979
0.00383452
-0.000864522
0.00370572
-0.00078994
0.00353233
-0.000713748
0.00332417
-0.000637785
0.00309077
-0.000563469
0.00284017
-0.00049194
0.00257984
-0.000424093
0.00231607
-0.00036061
0.00205526
-0.000302065
0.00180383
-0.000249085
0.00156556
-0.000201991
0.00134203
-0.000160689
0.00113442
-0.000125033
0.000947036
-9.49507e-05
0.00078042
-7.02635e-05
0.000632449
-5.0483e-05
0.000503402
-3.50166e-05
0.000392273
-2.33102e-05
0.000296777
-1.47732e-05
0.000213917
-8.81231e-06
0.000140002
-4.85359e-06
7.04553e-05
-2.33698e-06
-6.88307e-07
0.00382726
-0.00120209
0.00408707
-0.00122845
0.00429876
-0.00122192
0.0044295
-0.00119093
0.00448917
-0.00114159
0.00448335
-0.00108112
0.00440067
-0.0010122
0.00425287
-0.00093551
0.00405758
-0.000854045
0.00382487
-0.000771004
0.00356408
-0.000688282
0.00328542
-0.000607466
0.00299579
-0.000529871
0.00270177
-0.000456407
0.0024112
-0.000387964
0.00212845
-0.000325128
0.00185932
-0.000268146
0.00160728
-0.000217375
0.00137229
-0.000172892
0.00115613
-0.000134547
0.000961958
-0.000102243
0.000790237
-7.56968e-05
0.000639232
-5.43943e-05
0.000508201
-3.77412e-05
0.000395609
-2.51262e-05
0.000299047
-1.59172e-05
0.000215418
-9.48363e-06
0.000140933
-5.21281e-06
7.09141e-05
-2.50338e-06
-7.35762e-07
0.00478256
-0.0013097
0.00500671
-0.00133228
0.00515433
-0.00131983
0.00519996
-0.00128164
0.00515767
-0.0012241
0.00505773
-0.00115508
0.00489757
-0.00107904
0.00467472
-0.000996283
0.00441065
-0.000908499
0.0041175
-0.000819208
0.00380256
-0.000730499
0.00347774
-0.000643988
0.00315084
-0.000561568
0.00282393
-0.00048393
0.00250591
-0.000411256
0.00220186
-0.000344389
0.00191395
-0.000283871
0.00164671
-0.00022995
0.00140064
-0.000182844
0.00117666
-0.00014239
0.000976635
-0.000108304
0.000800267
-8.02404e-05
0.000646221
-5.76853e-05
0.000513119
-4.00375e-05
0.000399048
-2.6656e-05
0.000301417
-1.68782e-05
0.000217009
-1.00437e-05
0.000141929
-5.50875e-06
7.14083e-05
-2.63792e-06
-7.73477e-07
0.00580977
-0.0014216
0.00598285
-0.00143794
0.00604738
-0.00141698
0.00599362
-0.00136869
0.00583802
-0.00130095
0.00562232
-0.00122104
0.00537012
-0.00113456
0.00507596
-0.00104429
0.00474851
-0.000951397
0.00439868
-0.000857619
0.00403291
-0.000764585
0.00366389
-0.000674045
0.00330156
-0.000587889
0.00294354
-0.000506466
0.00259626
-0.000429796
0.00226976
-0.000359269
0.00196475
-0.000295944
0.00168344
-0.000239825
0.00142727
-0.000190791
0.00119614
-0.000148678
0.00099063
-0.000113188
0.000810092
-8.39245e-05
0.000653133
-6.037e-05
0.000518009
-4.19179e-05
0.000402501
-2.79103e-05
0.000303833
-1.76647e-05
0.000218656
-1.04991e-05
0.000142974
-5.74607e-06
7.19304e-05
-2.74347e-06
-8.02438e-07
0.00689217
-0.00152944
0.0069941
-0.00154167
0.00695175
-0.0015096
0.0067814
-0.00144748
0.00651177
-0.00136724
0.00617621
-0.0012766
0.00581038
-0.00117974
0.00543425
-0.00108055
0.00504974
-0.000982211
0.00465201
-0.000885397
0.00424561
-0.000790006
0.00383987
-0.000697176
0.00344056
-0.000607815
0.00305045
-0.000522458
0.00267729
-0.000442658
0.00233034
-0.000369973
0.00201038
-0.000304851
0.0017173
-0.000247173
0.00145193
-0.000196785
0.00121413
-0.000153479
0.00100361
-0.000116951
0.000819342
-8.67911e-05
0.000659727
-6.24788e-05
0.000522733
-4.34062e-05
0.00040589
-2.89079e-05
0.000306247
-1.8291e-05
0.000220333
-1.08602e-05
0.000144054
-5.932e-06
7.24748e-05
-2.82438e-06
-8.24124e-07
0.00799671
-0.00163819
0.00799868
-0.00163987
0.00782009
-0.00158891
0.00751645
-0.00150859
0.00713181
-0.00141471
0.00669252
-0.00131469
0.00622094
-0.00121087
0.00575309
-0.00110551
0.00530814
-0.00100253
0.00486778
-0.000903096
0.0044279
-0.000805988
0.00399243
-0.000711412
0.00355867
-0.000619708
0.00313907
-0.00053194
0.00274618
-0.000450571
0.00238319
-0.000376842
0.00205012
-0.000310745
0.00174693
-0.00025216
0.00147371
-0.00020094
0.00123007
-0.000156877
0.00101519
-0.000119667
0.000827725
-8.88988e-05
0.00066581
-6.40566e-05
0.000527177
-4.45366e-05
0.00040915
-2.9675e-05
0.000308625
-1.87767e-05
0.00022202
-1.11413e-05
0.00014516
-6.07622e-06
7.30384e-05
-2.88637e-06
-8.40481e-07
0.00908066
-0.00175219
0.00891766
-0.0017186
0.00857491
-0.00163534
0.00813635
-0.00153661
0.00764503
-0.00143341
0.00712159
-0.00132875
0.00657621
-0.00122276
0.00603638
-0.00111632
0.00553071
-0.00101197
0.00504562
-0.000910698
0.00457111
-0.000811923
0.0041079
-0.000716
0.00364944
-0.000623441
0.00320962
-0.000535455
0.00280183
-0.000454067
0.00242628
-0.000380195
0.00208285
-0.000313844
0.00177144
-0.000254951
0.00149187
-0.000203397
0.00124346
-0.000158987
0.00102506
-0.000121429
0.000835015
-9.03216e-05
0.000671236
-6.51604e-05
0.000531256
-4.53528e-05
0.000412234
-3.02444e-05
0.000310943
-1.91461e-05
0.000223709
-1.13598e-05
0.000146288
-6.19063e-06
7.362e-05
-2.93651e-06
-8.53902e-07
0.00996638
-0.00182949
0.00960472
-0.00167096
0.00911594
-0.00159698
0.00857603
-0.00150733
0.00801059
-0.00141173
0.00742912
-0.00131302
0.00684056
-0.00121167
0.00626133
-0.00110905
0.00570952
-0.00100691
0.00518254
-0.000906186
0.0046744
-0.000807529
0.00418535
-0.00071187
0.00371156
-0.000620177
0.00326107
-0.000533607
0.00284316
-0.0004534
0.00245861
-0.000380242
0.00210763
-0.000314338
0.00179017
-0.000255714
0.0015059
-0.000204299
0.00125398
-0.00015993
0.001033
-0.000122337
0.000841069
-9.11408e-05
0.00067592
-6.5854e-05
0.000534928
-4.59039e-05
0.000415128
-3.06531e-05
0.000313201
-1.94263e-05
0.000225405
-1.15348e-05
0.000147445
-6.28797e-06
7.42228e-05
-2.98214e-06
-8.66827e-07
5.98559e-05
9.32263e-07
0.000118579
2.52277e-06
0.000180413
3.53921e-06
0.000249091
3.85519e-06
0.000327714
3.38271e-06
0.000418977
2.06668e-06
0.000525294
-1.09027e-07
0.000648873
-3.11013e-06
0.00079177
-6.84051e-06
0.000955936
-1.11344e-05
0.00114325
-1.57557e-05
0.00135554
-2.04063e-05
0.00159464
-2.47441e-05
0.00186241
-2.841e-05
0.00216077
-3.10603e-05
0.00249178
-3.23959e-05
0.00285764
-3.21822e-05
0.00326105
-3.02555e-05
0.00370536
-2.6511e-05
0.004194
-2.08789e-05
0.00473084
-1.33422e-05
0.00532092
-4.06509e-06
0.00596867
6.28937e-06
0.00667535
1.59533e-05
0.00743675
2.11399e-05
0.0082411
1.51626e-05
0.00906446
-1.13267e-05
0.00985051
-6.61046e-05
0.0104734
-0.000142528
-0.000211503
0.0108866
6.15649e-05
9.28389e-07
0.000121931
2.50554e-06
0.000185438
3.49233e-06
0.000255911
3.75382e-06
0.00033654
3.19537e-06
0.000430111
1.75609e-06
0.000539137
-5.86265e-07
0.000665942
-3.80501e-06
0.00081272
-7.81436e-06
0.000981573
-1.24634e-05
0.00117455
-1.7537e-05
0.00139368
-2.27665e-05
0.00164101
-2.78503e-05
0.00191864
-3.24826e-05
0.00222882
-3.63877e-05
0.00257385
-3.93506e-05
0.0029561
-4.12319e-05
0.00337836
-4.19683e-05
0.0038442
-4.15592e-05
0.00435703
-4.00375e-05
0.0049197
-3.74494e-05
0.00553644
-3.3964e-05
0.0062099
-3.02019e-05
0.00693805
-2.77384e-05
0.00771184
-2.97766e-05
0.0085138
-4.17927e-05
0.00931522
-7.1363e-05
0.0100578
-0.000125206
0.010631
-0.000199737
-0.000277546
0.0109496
6.32401e-05
9.18832e-07
0.000125205
2.4731e-06
0.000190313
3.42469e-06
0.000262468
3.63114e-06
0.00034493
2.9921e-06
0.000440556
1.44166e-06
0.000551938
-1.04803e-06
0.000681486
-4.4576e-06
0.000831486
-8.71177e-06
0.00100415
-1.36747e-05
0.00120163
-1.91527e-05
0.00142606
-2.49065e-05
0.00167959
-3.06725e-05
0.00196443
-3.61939e-05
0.00228306
-4.12564e-05
0.0026379
-4.57201e-05
0.00303105
-4.95296e-05
0.00346481
-5.27045e-05
0.00394298
-5.53401e-05
0.00446859
-5.75906e-05
0.00504096
-5.95805e-05
0.0056642
-6.1483e-05
0.00633968
-6.3928e-05
0.0070599
-6.835e-05
0.0078114
-7.73352e-05
0.00857155
-9.501e-05
0.00930821
-0.000126625
0.00996833
-0.000176709
0.0104736
-0.000244558
-0.000326928
0.0107568
6.48295e-05
9.04838e-07
0.000128298
2.42921e-06
0.000194884
3.34282e-06
0.000268548
3.49699e-06
0.0003526
2.78677e-06
0.000449948
1.14212e-06
0.000563232
-1.46968e-06
0.000694914
-5.03621e-06
0.000847334
-9.49247e-06
0.00102275
-1.47177e-05
0.00122337
-2.05395e-05
0.00145135
-2.67466e-05
0.00170879
-3.3111e-05
0.00199773
-3.94173e-05
0.00232098
-4.55021e-05
0.00268119
-5.12933e-05
0.00307966
-5.68089e-05
0.00351674
-6.21175e-05
0.00399752
-6.73742e-05
0.00452643
-7.28989e-05
0.00509436
-7.88525e-05
0.00570323
-8.53045e-05
0.00635969
-9.30629e-05
0.00704993
-0.000103526
0.00775544
-0.000118497
0.00845238
-0.000140761
0.00910753
-0.000173692
0.00967741
-0.000220146
0.0101076
-0.000280654
-0.00035501
0.0103419
6.62811e-05
8.87773e-07
0.000131108
2.37795e-06
0.000198995
3.25367e-06
0.000273937
3.36162e-06
0.00035927
2.59351e-06
0.000457926
8.76242e-07
0.000572565
-1.82697e-06
0.000705665
-5.51001e-06
0.000859576
-1.01178e-05
0.00103656
-1.55441e-05
0.0012388
-2.1637e-05
0.00146843
-2.8212e-05
0.00172739
-3.50738e-05
0.00201687
-4.20377e-05
0.0023404
-4.8973e-05
0.00270164
-5.5873e-05
0.00310096
-6.28408e-05
0.00353388
-6.99181e-05
0.00400554
-7.72139e-05
0.00452685
-8.5249e-05
0.00508188
-9.43473e-05
0.00566246
-0.000104514
0.00628173
-0.000116485
0.00692536
-0.000131411
0.00756882
-0.000150449
0.00819067
-0.000175361
0.00876014
-0.000208262
0.00924195
-0.000250837
0.00959625
-0.000303483
-0.000365233
0.00978157
6.75415e-05
8.69006e-07
0.000133532
2.32337e-06
0.00020249
3.16406e-06
0.000278421
3.23491e-06
0.000364661
2.42572e-06
0.000464138
6.61499e-07
0.0005795
-2.09763e-06
0.000713204
-5.85108e-06
0.000867565
-1.05528e-05
0.00104479
-1.61106e-05
0.00124703
-2.23912e-05
0.00147637
-2.92354e-05
0.00173491
-3.64823e-05
0.00202156
-4.39554e-05
0.00233984
-5.15249e-05
0.00269697
-5.92671e-05
0.00309219
-6.73465e-05
0.00351607
-7.57705e-05
0.00397013
-8.46483e-05
0.00446921
-9.45046e-05
0.00500169
-0.00010576
0.00555009
-0.00011855
0.00612092
-0.000133316
0.00670473
-0.000150781
0.0072781
-0.000171772
0.00782092
-0.000197359
0.00830684
-0.000228666
0.00870692
-0.00026645
0.00899195
-0.000310603
-0.000359248
0.00913414
6.85565e-05
8.49786e-07
0.000135463
2.26915e-06
0.000205211
3.0801e-06
0.000281786
3.12556e-06
0.000368497
2.29497e-06
0.000468236
5.12701e-07
0.000583609
-2.26316e-06
0.000717011
-6.03656e-06
0.000870679
-1.07696e-05
0.00104672
-1.63824e-05
0.00124717
-2.27585e-05
0.00147402
-2.97588e-05
0.00172957
-3.72448e-05
0.00201126
-4.50594e-05
0.00232063
-5.31002e-05
0.00266735
-6.1456e-05
0.0030502
-7.0259e-05
0.00345999
-7.95696e-05
0.00389476
-8.95742e-05
0.00436253
-0.000100636
0.00485895
-0.000113077
0.00536861
-0.000127137
0.00588729
-0.000143132
0.00640651
-0.000161483
0.00690845
-0.000182658
0.00737405
-0.000207177
0.00778158
-0.000235478
0.00810842
-0.000267669
0.00833368
-0.000303242
-0.000339992
0.00844027
6.92763e-05
8.31228e-07
0.000136802
2.21849e-06
0.00020701
3.00692e-06
0.00028383
3.04063e-06
0.000370519
2.2103e-06
0.000469901
4.40966e-07
0.000584503
-2.31012e-06
0.000716623
-6.05036e-06
0.000868375
-1.07488e-05
0.00104171
-1.63363e-05
0.00123845
-2.27109e-05
0.00146032
-2.97495e-05
0.0017091
-3.73249e-05
0.00198362
-4.53185e-05
0.00228369
-5.36657e-05
0.00261535
-6.23971e-05
0.00297832
-7.15915e-05
0.00336698
-8.13597e-05
0.0037783
-9.18879e-05
0.00421238
-0.000103434
0.00466591
-0.000116253
0.00512895
-0.000130555
0.00559341
-0.000146541
0.00604917
-0.000164417
0.0064818
-0.00018437
0.00687511
-0.000206534
0.00721176
-0.000230915
0.00747475
-0.000257243
0.00764953
-0.000284832
-0.000311607
0.00772673
6.96588e-05
8.14463e-07
0.000137467
2.17457e-06
0.000207763
2.94949e-06
0.000284394
2.98666e-06
0.000370528
2.17966e-06
0.000468896
4.55569e-07
0.000581914
-2.22803e-06
0.000711746
-5.8808e-06
0.000860346
-1.04774e-05
0.00102947
-1.5958e-05
0.00122068
-2.2233e-05
0.00143533
-2.91936e-05
0.00167453
-3.67274e-05
0.00193849
-4.47347e-05
0.00222678
-5.31534e-05
0.00254097
-6.19818e-05
0.00288093
-7.12744e-05
0.00324331
-8.11303e-05
0.00362483
-9.16971e-05
0.00402274
-0.000103159
0.00443242
-0.000115694
0.00484605
-0.000129444
0.00525509
-0.000144512
0.00564947
-0.000160951
0.00601708
-0.000178758
0.00634468
-0.000197837
0.00661883
-0.000217963
0.00682712
-0.000238706
0.00695963
-0.000259384
-0.000278275
0.00701228
6.96662e-05
8.00328e-07
0.000137385
2.13975e-06
0.000207368
2.91136e-06
0.000283347
2.96809e-06
0.000368376
2.208e-06
0.000465062
5.61553e-07
0.000575683
-2.01215e-06
0.000702243
-5.52383e-06
0.00084651
-9.95243e-06
0.00101002
-1.52457e-05
0.00119406
-2.13245e-05
0.00139968
-2.80917e-05
0.00162759
-3.54456e-05
0.00187797
-4.32945e-05
0.00215043
-5.15743e-05
0.00244485
-6.02639e-05
0.0027602
-6.9388e-05
0.00309375
-7.90116e-05
0.00344214
-8.9234e-05
0.00380152
-0.000100172
0.00416671
-0.000111933
0.00453074
-0.000124589
0.00488558
-0.00013816
0.00522211
-0.000152606
0.00553021
-0.000167811
0.00579933
-0.000183571
0.00601933
-0.000199573
0.00618136
-0.000215379
0.00627888
-0.000230412
-0.000243363
0.00631155
6.92673e-05
7.89185e-07
0.0001365
2.11496e-06
0.000205746
2.89372e-06
0.000280594
2.98583e-06
0.000363958
2.29541e-06
0.000458299
7.57478e-07
0.000565732
-1.66619e-06
0.000688083
-4.9862e-06
0.000826914
-9.18437e-06
0.000983531
-1.42144e-05
0.00115896
-2.00056e-05
0.00135394
-2.647e-05
0.00156887
-3.35138e-05
0.00180364
-4.1049e-05
0.00205768
-4.9007e-05
0.00233006
-5.73495e-05
0.00261915
-6.60724e-05
0.00292226
-7.52031e-05
0.00323592
-8.47917e-05
0.00355592
-9.48967e-05
0.00387705
-0.000105564
0.00419297
-0.000116806
0.00449649
-0.000128589
0.00477972
-0.000140816
0.00503439
-0.000153327
0.00525231
-0.000165888
0.00542597
-0.000178189
0.00554926
-0.000189853
0.00561812
-0.000200446
-0.000209029
0.00563504
6.84415e-05
7.81093e-07
0.000134771
2.10023e-06
0.000202845
2.89613e-06
0.00027608
3.03839e-06
0.000357225
2.43848e-06
0.000448576
1.03711e-06
0.000552071
-1.20028e-06
0.000669342
-4.28306e-06
0.000801738
-8.19471e-06
0.00095033
-1.28933e-05
0.00111589