/*--------------------------------*- C++ -*----------------------------------*\
| =========                 |                                                 |
| \\      /  F ield         | OpenFOAM: The Open Source CFD Toolbox           |
|  \\    /   O peration     | Version:  2012                                  |
|   \\  /    A nd           | Website:  www.openfoam.com                      |
|    \\/     M anipulation  |                                                 |
\*---------------------------------------------------------------------------*/
FoamFile
{
    version     2.0;
    format      ascii;
    class       volScalarField;
    location    "0.5";
    object      p;
}
// * * * * * * * * * * * * * * * * * * * * * * * * * * * * * * * * * * * * * //

dimensions      [0 2 -2 0 0 0 0];


internalField   nonuniform List<scalar> 
2790
(
62.3113
62.1508
62.3045
62.726
63.3209
64.0576
64.9347
65.954
67.1142
68.4137
69.851
71.425
73.1338
74.9741
76.9403
79.0234
81.2105
83.4832
85.8159
88.1761
90.5243
92.8152
94.9988
97.0241
98.8431
100.414
101.707
102.704
103.397
103.821
62.1187
62.0692
62.2484
62.6675
63.2595
63.9938
64.8676
65.882
67.0362
68.3286
69.7579
71.3229
73.022
74.8519
76.8073
78.8797
81.0568
83.3212
85.6482
88.0063
90.3576
92.658
94.8585
96.9087
98.7603
100.372
101.712
102.765
103.521
104.031
61.9409
61.962
62.1613
62.5718
63.1528
63.8771
64.739
65.7389
66.8758
68.1483
69.5549
71.0942
72.7645
74.5625
76.4832
78.5185
80.657
82.8825
85.1722
87.4969
89.8216
92.1051
94.3015
96.3627
98.2418
99.8967
101.293
102.406
103.208
103.738
61.747
61.7995
62.013
62.4171
62.9865
63.6981
64.5448
65.5258
66.6399
67.8857
69.2614
70.7653
72.3953
74.148
76.0183
77.9987
80.0784
82.2423
84.4696
86.7338
89.0034
91.2406
93.4033
95.4464
97.3242
98.9926
100.41
101.54
102.329
102.783
61.5271
61.5946
61.8185
62.2181
62.7748
63.4702
64.2969
65.2532
66.3378
67.549
68.8848
70.3429
71.9208
73.6151
75.4203
77.3292
79.3315
81.4132
83.5552
85.7339
87.9206
90.0814
92.1777
94.1671
96.0048
97.6437
99.0345
100.126
100.844
101.14
61.2769
61.3511
61.5797
61.9728
62.5143
63.1894
63.9913
64.9177
65.9668
67.1365
68.4243
69.8276
71.3434
72.9676
74.6947
76.5173
78.4254
80.4057
82.4408
84.509
86.5844
88.6363
90.6293
92.5236
94.2749
95.8341
97.146
98.1482
98.763
98.8668
60.9943
61.0707
61.2989
61.683
62.2071
62.8586
63.6317
64.5234
65.5313
66.6529
67.8852
69.2251
70.6689
72.2119
73.8482
75.5701
77.3675
79.2276
81.1339
83.0663
85.0005
86.9085
88.7576
90.5101
92.1234
93.5485
94.728
95.5955
96.091
96.0159
60.6787
60.7544
60.9784
61.3508
61.855
62.4799
63.2202
64.0725
65.0338
66.101
67.2706
68.5389
69.9014
71.3527
72.8862
74.4935
76.1642
77.8852
79.6405
81.4104
83.1716
84.8975
86.5573
88.1156
89.5319
90.7603
91.7467
92.4302
92.7886
92.5621
60.3303
60.4035
60.6202
60.9782
61.4601
62.0554
62.7591
63.5676
64.4774
65.4845
66.5849
67.7741
69.0465
70.3962
71.8153
73.2947
74.8229
76.3861
77.9678
79.5475
81.1013
82.6032
84.0227
85.3255
86.474
87.4267
88.1405
88.571
88.7472
88.3675
59.9497
60.0191
60.2261
60.5672
61.0244
61.5874
62.2512
63.0121
63.8657
64.8075
65.8327
66.9357
68.1104
69.3492
70.6433
71.9822
73.3528
74.74
76.1257
77.4866
78.7972
80.0297
81.1516
82.1273
82.9193
83.4909
83.8181
83.8825
83.7757
83.1795
59.538
59.6027
59.7982
60.1202
60.5505
61.0785
61.6995
62.4091
63.2025
64.0744
65.019
66.0298
67.0996
68.2194
69.379
70.5659
71.7651
72.9593
74.1273
75.2416
76.273
77.1892
77.9513
78.5165
78.8408
78.8905
78.6613
78.167
77.5811
76.6107
59.0967
59.156
59.3384
59.6395
60.0407
60.5316
61.107
61.7623
62.4919
63.2898
64.1492
65.0626
66.0214
67.0153
68.0321
69.0572
70.0731
71.0594
71.9899
72.8323
73.5514
74.1055
74.4428
74.5041
74.2291
73.5737
72.536
71.1559
69.7189
68.0375
58.6274
58.6806
58.8488
59.1272
59.4977
59.9495
60.4771
61.0754
61.7382
62.4587
63.2291
64.0409
64.8839
65.7461
66.6136
67.4691
68.2922
69.0582
69.7355
70.2858
70.6646
70.8155
70.6667
70.1318
69.1162
67.5307
65.3238
62.5118
59.4913
56.3101
58.1319
58.1786
58.3314
58.586
58.9242
59.3352
59.8131
60.3523
60.946
61.5864
62.2649
62.9717
63.6952
64.4218
65.1352
65.8157
66.4392
66.9766
67.3906
67.6353
67.6538
67.3716
66.6914
65.4879
63.6044
60.849
57.0124
51.9016
45.7998
38.9886
57.612
57.6518
57.7886
58.0183
58.323
58.6919
59.1186
59.597
60.1197
60.6781
61.2627
61.8623
62.464
63.0524
63.609
64.1115
64.5323
64.8376
64.9842
64.9178
64.5685
63.8431
62.6158
60.7136
57.8944
53.8042
47.9127
39.367
27.1755
9.43907
-74.3861
-74.9166
-76.0631
-78.0426
-80.994
-84.9775
-89.9625
-95.8199
-102.317
-109.11
-115.748
-121.682
-126.294
-128.944
-129.041
-126.137
-120.02
-110.802
-98.9719
-85.2992
-70.7103
-56.1595
-42.5059
-30.4137
-20.2782
-12.2238
-5.59628
-0.4571
2.26659
2.72363
-74.2606
-74.873
-76.0863
-78.1392
-81.1746
-85.2573
-90.3592
-96.3529
-103.004
-109.964
-116.776
-122.879
-127.641
-130.413
-130.596
-127.742
-121.625
-112.375
-100.493
-86.7514
-72.0749
-57.4168
-43.6371
-31.4079
-21.1415
-12.9077
-6.11618
-0.913769
1.87472
2.53488
-74.4426
-75.2639
-76.6875
-78.96
-82.2073
-86.4917
-91.7886
-97.9763
-104.826
-111.993
-119.017
-125.327
-130.276
-133.19
-133.451
-130.6
-124.41
-115.019
-102.957
-89.0161
-74.1332
-59.2677
-45.284
-32.8612
-22.4189
-13.9081
-6.85857
-1.5535
1.37397
2.35312
-75.0768
-76.1801
-77.8717
-80.4282
-83.9523
-88.5047
-94.0652
-100.52
-107.646
-115.104
-122.427
-129.033
-134.248
-137.365
-137.731
-134.872
-128.544
-118.914
-106.548
-92.2692
-77.0405
-61.8361
-47.5332
-34.8184
-24.1001
-15.1959
-7.81528
-2.37587
0.74723
2.11222
-76.2766
-77.6887
-79.6448
-82.4951
-86.3156
-91.1674
-97.0334
-103.806
-111.269
-119.085
-126.783
-133.76
-139.31
-142.679
-143.171
-140.29
-133.77
-123.818
-111.049
-96.3265
-80.6448
-65.0004
-50.2895
-37.2007
-26.0923
-16.6972
-8.96216
-3.34441
0.0292557
1.82344
-78.108
-79.808
-81.9873
-85.1086
-89.215
-94.3706
-100.562
-107.688
-115.539
-123.778
-131.925
-139.354
-145.312
-148.981
-149.604
-146.676
-139.899
-129.544
-116.284
-101.027
-84.8059
-68.6416
-53.4516
-39.9174
-28.277
-18.3312
-10.28
-4.42745
-0.753283
1.49325
-80.5479
-82.459
-84.793
-88.1417
-92.5038
-97.9487
-104.468
-111.967
-120.24
-128.951
-137.61
-145.559
-151.985
-155.984
-156.736
-153.729
-146.635
-135.819
-122.008
-106.158
-89.3449
-72.612
-56.8914
-42.824
-30.5386
-20.0646
-11.727
-5.59003
-1.5745
1.13069
-83.4295
-85.4437
-87.859
-91.3845
-95.9627
-101.671
-108.506
-116.379
-125.091
-134.305
-143.519
-152.041
-158.986
-163.336
-164.182
-161.072
-153.615
-142.306
-127.925
-111.466
-94.0549
-76.7395
-60.4511
-45.7342
-32.7953
-21.8933
-13.2446
-6.79358
-2.41012
0.744374
-86.4364
-88.4629
-90.9065
-94.5644
-99.3181
-105.258
-112.383
-120.614
-129.759
-139.479
-149.263
-158.386
-165.88
-170.588
-171.473
-168.245
-160.405
-148.619
-133.708
-116.67
-98.709
-80.8262
-63.9152
-48.5248
-35.0331
-23.7523
-14.777
-7.99999
-3.23776
0.342161
-89.1707
-91.1729
-93.6194
-97.3791
-102.269
-108.401
-115.776
-124.326
-133.867
-144.063
-154.393
-164.108
-172.153
-177.214
-178.158
-174.717
-166.521
-154.341
-139.018
-121.503
-103.062
-84.6493
-67.1057
-51.1382
-37.2002
-25.562
-16.2692
-9.17274
-4.03737
-0.0688029
-91.2811
-93.2492
-95.6972
-99.5397
-104.523
-110.798
-118.366
-127.168
-137.031
-147.625
-158.421
-168.658
-177.205
-182.571
-183.573
-179.92
-171.497
-159.072
-143.517
-125.738
-106.862
-87.9702
-69.9203
-53.4974
-39.1923
-27.2469
-17.6697
-10.2783
-4.79175
-0.481898
-92.5274
-94.433
-96.9357
-100.817
-105.846
-112.208
-119.897
-128.858
-138.924
-149.772
-160.87
-171.461
-180.412
-186.047
-187.148
-183.477
-175.025
-162.555
-146.907
-129.011
-109.852
-90.5961
-72.2072
-55.4794
-40.9157
-28.7401
-18.9327
-11.2877
-5.48672
-0.890731
-92.7577
-94.6783
-97.1948
-101.071
-106.116
-112.524
-120.274
-129.307
-139.459
-150.421
-161.675
-172.475
-181.622
-187.433
-188.654
-185.041
-176.703
-164.386
-148.845
-130.956
-111.746
-92.368
-73.8449
-56.9844
-42.2945
-29.9864
-20.0209
-12.1775
-6.11143
-1.28897
-91.9989
-93.9437
-96.413
-100.224
-105.283
-111.719
-119.488
-128.514
-138.637
-149.552
-160.756
-171.489
-180.547
-186.303
-187.577
-184.151
-176.172
-164.267
-149.088
-131.467
-112.448
-93.1913
-74.7504
-57.9426
-43.2744
-30.9466
-20.9078
-12.9319
-6.65896
-1.6706
-90.3208
-92.3621
-94.6105
-98.2996
-103.43
-109.926
-117.685
-126.63
-136.603
-147.303
-158.228
-168.614
-177.306
-182.85
-184.199
-181.076
-173.621
-162.307
-147.683
-130.541
-111.934
-93.0274
-74.8842
-58.3182
-43.8263
-31.5991
-21.579
-13.5423
-7.12622
-2.02978
57.0595
57.092
57.2119
57.4153
57.6851
58.01
58.3835
58.7989
59.2482
59.722
60.2097
60.6991
61.1758
61.6227
62.0193
62.3404
62.5552
62.6255
62.5026
62.124
61.4081
60.2453
58.4836
55.9058
52.1875
46.807
38.8445
26.3698
4.41578
-55.5228
56.4677
56.4926
56.5946
56.7704
57.0034
57.2825
57.6005
57.9504
58.3234
58.7096
59.0973
59.4732
59.8217
60.124
60.3576
60.495
60.5023
60.3377
59.9478
59.264
58.1964
56.6246
54.3816
51.2286
46.8097
40.5591
31.5161
17.9837
-0.764275
-26.6237
55.8411
55.8581
55.9415
56.0886
56.2836
56.5152
56.7761
57.0587
57.3537
57.6504
57.9363
58.1973
58.4163
58.5734
58.6444
58.5996
58.4032
58.0107
57.3659
56.3969
55.0106
53.0853
50.4559
46.8962
42.0944
35.623
26.948
15.4501
1.91896
-12.667
55.1807
55.1896
55.2538
55.3714
55.5274
55.7105
55.9132
56.1273
56.3432
56.5495
56.7332
56.879
56.9692
56.9827
56.8941
56.6726
56.2806
55.6729
54.7931
53.5686
51.9092
49.701
46.7956
43.0033
38.0902
31.7833
23.8174
13.8729
1.91379
-12.1324
54.4878
54.4884
54.5331
54.6207
54.7369
54.8709
55.0147
55.1599
55.2964
55.4124
55.4943
55.5264
55.4901
55.3637
55.1216
54.7319
54.1567
53.3516
52.2623
50.8191
48.9384
46.5207
43.441
39.5498
34.678
28.64
21.2543
12.2913
1.58087
-10.5403
53.7642
53.7565
53.7815
53.8387
53.9149
53.9995
54.0842
54.1606
54.2182
54.245
54.227
54.148
53.9892
53.7289
53.3414
52.7951
52.0524
51.0715
49.8019
48.1796
46.1303
43.5706
40.4005
36.5057
31.7656
26.0551
19.2616
11.2899
2.11323
-7.85783
53.012
52.996
53.0013
53.028
53.0642
53.0996
53.1258
53.1342
53.1143
53.0538
52.9388
52.7529
52.4773
52.0907
51.5682
50.879
49.9874
48.8547
47.4353
45.6732
43.5051
40.8629
37.6699
33.8431
29.3007
23.9679
17.7906
10.7477
2.8506
-5.60747
52.2336
52.2095
52.1952
52.1918
52.1884
52.1752
52.144
52.0858
51.9905
51.8457
51.6377
51.3503
50.9652
50.4617
49.8159
48.9992
47.9788
46.7195
45.181
43.3163
41.0738
38.3997
35.2373
31.5295
27.2249
22.2832
16.6831
10.429
3.53943
-3.75696
51.432
51.4001
51.3666
51.3335
51.2913
51.2307
51.1434
51.021
50.8531
50.6279
50.3319
49.9496
49.4634
48.8536
48.0977
47.17
46.0412
44.6801
43.0521
41.1191
38.8405
36.1753
33.0835
29.5281
25.4791
20.9179
15.8416
10.2673
4.22266
-2.1058
50.6104
50.571
50.5189
50.457
50.3771
50.2705
50.1295
49.9455
49.7087
49.4077
49.0297
48.5598
47.9817
47.2771
46.4254
45.4036
44.1865
42.7472
41.0572
39.0861
36.8032
34.1789
31.1863
27.8031
24.0144
19.8155
15.2147
10.2358
4.91043
-0.612886
49.7727
49.7261
49.6561
49.5664
49.4503
49.2999
49.1076
48.8654
48.5639
48.1925
47.739
47.1898
46.5297
45.7422
44.809
43.71
42.424
40.9286
39.2008
37.2176
34.9564
32.3971
29.523
26.3223
22.7906
18.9318
14.7603
10.3021
5.58846
0.737044
48.9228
48.8695
48.7825
48.6664
48.5159
48.3239
48.0833
47.7868
47.4255
46.9895
46.4677
45.8477
45.116
44.2577
43.257
42.0971
40.7602
39.2286
37.4843
35.5104
33.2915
30.8147
28.0709
25.0562
21.7726
18.2293
14.4434
10.4405
6.24995
1.96547
48.0652
48.0058
47.9028
47.7618
47.5789
47.348
47.0627
46.716
46.3
45.8057
45.2231
44.5412
43.7481
42.831
41.7766
40.5708
39.1996
37.6492
35.9063
33.9592
31.7979
29.4154
26.8084
23.9779
20.9301
17.677
14.2366
10.6329
6.8923
3.08997
47.2047
47.1397
47.0219
46.8577
46.6448
46.378
46.0515
45.6592
45.194
44.6479
44.0122
43.2772
42.4329
41.4685
40.3729
39.1352
37.7443
36.1901
34.4634
32.5566
30.4641
28.1834
25.7149
23.0632
20.2371
17.2495
14.1181
10.8648
7.51315
4.12324
46.3464
46.2763
46.145
45.9595
45.719
45.4194
45.0558
44.6226
44.1137
43.5224
42.8411
42.0618
41.176
40.175
39.05
37.7926
36.3948
34.8495
33.1507
31.2942
29.2781
27.1027
24.7715
22.2909
19.6709
16.925
14.0696
11.1244
8.10999
5.07466
45.4956
45.4211
45.2776
45.0727
44.8073
44.4782
44.0814
43.6121
43.0653
42.4352
41.7158
40.9003
39.9822
38.9544
37.8105
36.5443
35.1502
33.6238
31.9619
30.1631
28.2277
26.1584
23.9605
21.6416
19.2122
16.6852
14.076
11.4017
8.68051
5.95123
44.658
44.5797
44.4253
44.2031
43.9154
43.5602
43.1342
42.6336
42.0543
41.3918
40.6412
39.7975
38.8553
37.8097
36.6559
35.3899
34.0084
32.5089
30.8905
29.1538
27.3009
25.3363
23.266
21.0984
18.8439
16.5146
14.1244
11.6886
9.22276
6.75832
43.8394
43.7579
43.594
43.3564
43.0491
42.6712
42.22
41.6927
41.0862
40.3973
39.6221
38.7571
37.7984
36.7426
35.5868
34.3286
32.9664
31.4997
29.9292
28.257
26.4866
24.6232
22.6736
20.6463
18.5513
16.3998
14.2043
11.9782
9.7349
7.49993
43.0458
42.9618
42.7896
42.5387
42.2145
41.8169
41.3443
40.7948
40.1662
39.4562
38.6625
37.7824
36.8138
35.7545
34.603
33.3585
32.0209
30.5911
29.071
27.4637
25.7739
24.0071
22.1704
20.2722
18.3218
16.3296
14.3066
12.2646
10.2152
8.17916
42.2835
42.1974
42.0182
41.756
41.4172
41.0031
40.5128
39.9451
39.2988
38.5729
37.7658
36.8763
35.9032
34.8458
33.7038
32.4775
31.1681
29.7775
28.3087
26.7655
25.1529
23.4771
21.7449
19.9644
18.1444
16.2941
14.4236
12.543
10.6623
8.79853
41.5589
41.4711
41.2861
41.0142
40.6633
40.2354
39.7306
39.1485
38.4888
37.7512
36.9354
36.0411
35.0681
34.0169
32.8881
31.6832
30.4041
29.0537
27.6356
26.1541
24.6147
23.0233
21.3869
19.713
18.0096
16.2853
14.5488
12.8091
11.0749
9.36002
40.8783
40.7893
40.5995
40.3195
39.9585
39.5195
39.0031
38.4099
37.7403
36.9948
36.1741
35.2787
34.3095
33.2676
32.1547
30.973
29.7252
28.4147
27.0456
25.6226
24.1512
22.6373
21.0876
19.5092
17.9095
16.2961
14.6769
13.0597
11.4521
9.86548
40.2486
40.1587
39.9648
39.6781
39.3087
38.8607
38.3354
37.7339
37.0574
36.3072
35.4846
34.591
33.6281
32.5977
31.5022
30.3444
29.1276
27.8556
26.5328
25.1641
23.7549
22.3112
20.8391
19.3454
17.8369
16.3204
14.803
13.2915
11.7926
10.3158
39.6766
39.5859
39.3884
39.096
38.7198
38.2647
37.7326
37.1252
36.4442
35.6917
34.8696
33.98
33.0251
32.0075
30.9299
29.7958
28.6087
27.3729
26.0928
24.7735
23.4204
22.0391
20.6355
19.216
17.7866
16.3539
14.9239
13.5028
12.0966
10.713
39.1695
39.0779
38.8771
38.5795
38.1975
37.7367
37.1996
36.588
35.9043
35.1513
34.3312
33.4468
32.5007
31.4959
30.4359
29.3241
28.1647
26.9618
25.7202
24.4449
23.141
21.8142
20.47
19.1142
17.7526
16.391
15.035
13.6901
12.3615
11.0558
38.7348
38.6419
38.4374
38.1348
37.7479
37.283
36.7422
36.1281
35.4433
34.691
33.874
32.9954
32.0582
31.066
30.0222
28.9308
27.796
26.6222
25.4141
24.1767
22.9151
21.6346
20.3405
19.0383
17.7333
16.4309
15.1363
13.8544
12.5899
11.3485
38.381
38.2858
38.0755
37.7669
37.3753
36.9065
36.3628
35.7468
35.0616
34.3105
33.4969
32.6239
31.6951
30.7141
29.6847
28.611
27.4972
26.348
25.168
23.9621
22.7352
21.4926
20.2392
18.9804
17.721
16.4661
15.2204
13.9885
12.7747
11.5838
38.1183
38.0185
37.8005
37.4863
37.0914
36.62
36.0741
35.4567
34.7714
34.0217
33.2111
32.343
31.4211
30.4493
29.4315
28.3719
27.2749
26.1451
24.9871
23.8058
22.6061
21.3928
20.171
18.9454
17.7211
16.5025
15.2942
14.1006
12.9257
11.7736
37.9587
37.8371
37.603
37.284
36.8878
36.415
35.868
35.2503
34.5656
33.8176
33.0098
32.1458
31.2294
30.2645
29.2553
28.2059
27.1209
26.0047
24.8621
23.6978
22.5166
21.3233
20.1228
18.9197
17.7188
16.5246
15.3412
14.1729
13.0234
11.8965
37.9668
37.7775
37.5149
37.1903
36.7921
36.3167
35.7674
35.1484
34.4635
33.7161
32.9097
32.0479
31.1347
30.174
29.1698
28.1266
27.0487
25.9406
24.8071
23.6527
22.4823
21.3005
20.1122
18.9218
17.7341
16.5533
15.3836
14.2289
13.093
11.9791
-150.131
-129.598
-106.125
-47.0303
-54.1282
-62.5744
-29.2634
-41.1798
-51.4033
-28.0311
-38.446
-46.4705
-22.8374
-31.2215
-38.2495
-17.7682
-24.8139
-31.0006
-13.9948
-19.9851
-25.2716
-10.9022
-15.9892
-20.4699
-8.22292
-12.5704
-16.3865
-5.89507
-9.64199
-12.9156
-3.85878
-7.11158
-9.94027
-2.05836
-4.90023
-7.36175
-0.453223
-2.95051
-5.10613
0.986842
-1.21929
-3.11783
2.28514
0.326901
-1.35406
3.45922
1.71328
0.217484
4.52221
2.95858
1.62101
5.48428
4.0775
2.87549
6.35364
5.08194
3.99622
7.13693
5.98153
4.99553
7.83943
6.78395
5.88335
8.46586
7.49592
6.66821
9.0192
8.12208
7.35631
9.50371
8.66806
7.95437
9.91898
9.13454
8.46434
10.2716
9.52899
8.89394
10.5534
9.84396
9.23726
10.7799
10.0953
9.50901
10.9261
10.259
9.68762
11.0274
10.3738
9.81013
-87.6566
-90.677
-92.1248
-95.5865
-100.86
-107.427
-115.126
-123.897
-133.585
-143.89
-154.321
-164.135
-172.281
-177.511
-178.908
-176.14
-169.29
-158.663
-144.712
-128.208
-110.206
-91.8638
-74.2304
-58.0969
-43.9399
-31.9383
-22.0333
-14.0107
-7.51681
-2.36434
-74.372
-82.4689
-86.9278
-92.0222
-97.9964
-104.694
-112.233
-120.675
-129.896
-139.608
-149.342
-158.41
-165.889
-170.744
-172.161
-169.734
-163.443
-153.468
-140.216
-124.453
-107.225
-89.6558
-72.7459
-57.2406
-43.5838
-31.9397
-22.2526
-14.3245
-7.82271
-2.66539
-65.3199
-76.5698
-82.8634
-88.6184
-94.9522
-101.844
-109.301
-117.374
-126.003
-134.962
-143.842
-152.039
-158.771
-163.199
-164.562
-162.313
-156.373
-146.896
-134.301
-119.352
-103.052
-86.4518
-70.4669
-55.7731
-42.7708
-31.6083
-22.2371
-14.4821
-8.04116
-2.92517
-57.5053
-69.3189
-77.8514
-85.0216
-91.8996
-98.8687
-106.151
-113.852
-121.915
-130.13
-138.141
-145.437
-151.381
-155.261
-156.332
-153.945
-148.088
-138.964
-127.019
-112.986
-97.7839
-82.3433
-67.4682
-53.7488
-41.5363
-30.9646
-21.9973
-14.4875
-8.1714
-3.13695
-48.117
-59.6203
-69.7537
-78.6227
-86.6495
-94.2479
-101.731
-109.281
-116.921
-124.51
-131.753
-138.216
-143.364
-146.469
-146.864
-144.126
-138.288
-129.574
-118.42
-105.49
-91.5792
-77.4794
-63.8707
-51.2556
-39.9388
-30.0445
-21.5533
-14.3504
-8.21536
-3.29608
-39.4566
-49.829
-60.2883
-70.0115
-78.8409
-87.0476
-94.8911
-102.512
-109.932
-117.052
-123.634
-129.305
-133.57
-135.774
-135.463
-132.5
-126.905
-118.857
-108.744
-97.1364
-84.6951
-72.0738
-59.8368
-48.4079
-38.0538
-28.8949
-20.932
-14.0846
-8.17715
-3.40033
-32.2553
-41.1649
-51.0154
-60.6588
-69.5974
-77.9414
-85.8609
-93.4206
-100.595
-107.272
-113.24
-118.166
-121.598
-123.083
-122.404
-119.539
-114.479
-107.355
-98.4887
-88.3492
-77.4709
-66.3837
-55.5516
-45.3331
-35.965
-27.5679
-20.1644
-13.7068
-8.06288
-3.45038
-26.2565
-33.789
-42.5989
-51.5629
-60.056
-68.0672
-75.6842
-82.9075
-89.6647
-95.826
-101.191
-105.476
-108.311
-109.415
-108.712
-106.198
-101.855
-95.7816
-88.2344
-79.5826
-70.2493
-60.6588
-51.1915
-42.1517
-33.7522
-26.1149
-19.2819
-13.2346
-7.88027
-3.44975
-21.2475
-27.6143
-35.2861
-43.2984
-51.028
-58.396
-65.4317
-72.0951
-78.2864
-83.868
-88.6597
-92.4308
-94.9065
-95.8987
-95.3728
-93.3278
-89.7549
-84.7306
-78.4498
-71.1957
-63.2984
-55.0951
-46.897
-38.9626
-31.4835
-24.5816
-18.3139
-12.6859
-7.63825
-3.40418
-17.0518
-22.4655
-29.075
-36.0887
-42.9429
-49.531
-55.85
-61.8412
-67.3972
-72.3855
-76.6509
-80.0129
-82.2746
-83.2921
-83.0252
-81.4697
-78.6286
-74.5629
-69.4174
-63.4064
-56.7845
-49.819
-42.7634
-35.8371
-29.2117
-23.0058
-17.2865
-12.0774
-7.34641
-3.3207
-13.498
-18.1386
-23.8263
-29.9155
-35.9157
-41.7167
-47.3011
-52.6068
-57.5313
-61.9555
-65.7495
-68.7733
-70.8854
-71.9668
-71.9617
-70.8558
-68.6591
-65.4212
-61.2496
-56.3048
-50.7827
-44.8941
-38.8454
-32.8216
-26.9749
-21.4177
-16.2224
-11.425
-7.01453
-3.20669
-10.449
-14.4591
-19.3713
-24.6537
-29.8846
-34.9609
-39.8614
-44.5284
-48.8704
-52.7841
-56.1625
-58.8956
-60.8782
-62.0107
-62.2294
-61.5056
-59.85
-57.3034
-53.9456
-49.8965
-45.3064
-40.3415
-35.1689
-29.9441
-24.8001
-19.8413
-15.141
-10.743
-6.65217
-3.06916
-7.8044
-11.2952
-15.5605
-20.1562
-24.7198
-29.1591
-33.4541
-37.5544
-41.3808
-44.8457
-47.8607
-50.3378
-52.1948
-53.35
-53.7426
-53.328
-52.1143
-50.1344
-47.4476
-44.1432
-40.3365
-36.158
-31.7429
-27.2208
-22.7067
-18.2956
-14.0589
-10.0444
-6.2684
-2.91444
-5.49047
-8.54909
-12.274
-16.2901
-20.2843
-24.1756
-27.947
-31.5561
-34.9356
-38.0115
-40.7103
-42.9602
-44.6942
-45.8527
-46.3667
-46.1933
-45.3347
-43.8151
-41.6782
-38.9905
-35.8401
-32.3293
-28.567
-24.6605
-20.7086
-16.7961
-12.9905
-9.34099
-5.87157
-2.74801
-3.45222
-6.1484
-9.41996
-12.9471
-16.458
-19.8819
-23.2053
-26.3931
-29.3885
-32.1291
-34.5536
-36.6023
-38.2197
-39.356
-39.9543
-39.9677
-39.3927
-38.2461
-36.5596
-34.3824
-31.7815
-28.837
-25.6364
-22.268
-18.8159
-15.355
-11.9478
-8.64295
-5.46918
-2.57461
-1.64818
-4.03884
-6.92841
-10.0423
-13.1434
-16.1698
-19.1112
-21.9389
-24.6053
-27.0576
-29.2442
-31.1151
-32.6235
-33.7275
-34.3791
-34.5348
-34.185
-33.3399
-32.0219
-30.2671
-28.1262
-25.6619
-22.9438
-20.0448
-17.0357
-13.9822
-10.9411
-7.95918
-5.06789
-2.3983
-0.0467882
-2.17874
-4.74521
-7.50901
-10.2623
-12.9509
-15.5671
-18.0877
-20.4725
-22.6771
-24.6575
-26.3718
-27.7801
-28.8462
-29.5296
-29.7923
-29.6206
-29.019
-28.0025
-26.5974
-24.8419
-22.7843
-20.4806
-17.9901
-15.3727
-12.6851
-9.97862
-7.29719
-4.67348
-2.22251
1.37668
-0.535476
-2.82795
-5.29467
-7.75265
-10.1541
-12.4936
-14.7523
-16.8964
-18.8881
-20.6902
-22.2668
-23.5837
-24.6097
-25.3104
-25.6532
-25.6221
-25.217
-24.4473
-23.3318
-21.8988
-20.1859
-18.2374
-16.1019
-13.8295
-11.4692
-9.06691
-6.66326
-4.2909
-2.05017
2.64189
0.916805
-1.14294
-3.35728
-5.56431
-7.7218
-9.82589
-11.8614
-13.7999
-15.609
-17.2569
-18.7129
-19.9475
-20.9333
-21.6413
-22.0437
-22.1232
-21.8763
-21.3086
-20.4327
-19.2697
-17.8485
-16.2042
-14.3764
-12.4071
-10.3385
-8.21118
-6.06252
-3.92433
-1.88371
3.76475
2.19899
0.337032
-1.66287
-3.6567
-5.60692
-7.51096
-9.35653
-11.1195
-12.7721
-14.287
-15.6377
-16.7986
-17.7457
-18.4542
-18.9008
-19.0669
-18.9475
-18.5448
-17.8673
-16.9302
-15.7555
-14.3712
-12.8095
-11.1056
-9.29557
-7.41537
-5.49913
-3.57727
-1.72516
4.75815
3.328
1.634
-0.18387
-1.9968
-3.77118
-5.50543
-7.18961
-8.8031
-10.3219
-11.7225
-12.9817
-14.0772
-14.9876
-15.6932
-16.1715
-16.4053
-16.3883
-16.1205
-15.6068
-14.8583
-13.8916
-12.729
-11.3966
-9.92386
-8.34194
-6.68245
-4.97642
-3.25262
-1.57617
5.63292
4.31795
2.76626
1.10252
-0.557282
-2.18289
-3.77345
-5.32089
-6.80749
-8.21242
-9.51504
-10.6952
-11.7333
-12.6103
-13.3087
-13.8097
-14.0965
-14.1619
-14.0041
-13.6257
-13.0343
-12.2427
-11.2683
-10.1327
-8.86043
-7.47842
-6.01458
-4.49702
-2.95277
-1.43807
6.39737
5.17981
3.74816
2.21435
0.683549
-0.816753
-2.28627
-3.71843
-5.09785
-6.40627
-7.62555
-8.73794
-9.72596
-10.5727
-11.2626
-11.7792
-12.1072
-12.2386
-12.1701
-11.9029
-11.442
-10.7968
-9.98148
-9.01353
-7.91384
-6.70559
-5.41353
-4.06316
-2.67976
-1.31197
7.05948
5.92367
4.59257
3.16746
1.74454
0.348995
-1.01932
-2.355
-3.6446
-4.87192
-6.02086
-7.07563
-8.0206
-8.84057
-9.52131
-10.0484
-10.4082
-10.592
-10.5959
-10.4195
-10.0661
-9.54291
-8.86091
-8.03477
-7.08221
-6.02345
-4.88049
-3.67654
-2.43522
-1.19874
7.62305
6.55509
5.30715
3.97191
2.63815
1.32915
0.0444569
-1.21146
-2.42669
-3.58671
-4.67706
-5.68353
-6.592
-7.38865
-8.0604
-8.59438
-8.97831
-9.20344
-9.26519
-9.16225
-8.89652
-8.47337
-7.90171
-7.1938
-6.36487
-5.43268
-4.41697
-3.33898
-2.22079
-1.09921
8.09568
7.08282
5.90247
4.64015
3.37866
2.13979
0.922879
-0.268357
-1.4232
-2.52847
-3.57102
-4.53787
-5.41613
-6.19306
-6.85655
-7.39493
-7.7971
-8.05442
-8.16192
-8.11762
-7.9224
-7.58029
-7.09856
-6.48759
-5.76066
-4.93356
-4.0242
-3.05212
-2.03807
-1.01429
8.47407
7.5047
6.37742
5.1724
3.96775
2.78404
1.62044
0.480122
-0.627136
-1.68919
-2.69387
-3.62919
-4.48316
-5.24393
-5.90011
-6.44092
-6.85617
-7.13754
-7.27984
-7.28061
-7.14004
-6.86119
-6.45011
-5.9158
-5.27004
-4.52709
-3.70337
-2.81706
-1.88779
-0.944066
8.77026
7.83296
6.74526
5.58289
4.42043
3.27763
2.15356
1.05098
-0.0210092
-1.05101
-2.02759
-2.93948
-3.77535
-4.52399
-5.17457
-5.71702
-6.14193
-6.44133
-6.60985
-6.6446
-6.54527
-6.31421
-5.95663
-5.4805
-4.89651
-4.21777
-3.45957
-2.63904
-1.77487
-0.892231
8.96724
8.05065
6.98922
5.85585
4.72201
3.60678
2.50932
1.43222
0.384101
-0.624146
-1.58157
-2.47735
-3.30061
-4.04043
-4.68607
-5.22774
-5.657
-5.96663
-6.15123
-6.20771
-6.13536
-5.93609
-5.6145
-5.17786
-4.63607
-4.00142
-3.28839
-2.51331
-1.6943
-0.85478
9.09281
8.18029
7.13155
6.01354
4.89426
3.79257
2.70802
1.6432
0.606513
-0.391414
-1.33987
-2.22828
-3.04608
-3.78283
-4.42863
-4.97379
-5.40893
-5.7265
-5.92143
-5.99075
-5.93374
-5.75207
-5.45003
-5.03455
-4.51509
-3.90345
-3.2136
-2.46122
-1.66339
-0.838985
)
;

boundaryField
{
    inlet
    {
        type            zeroGradient;
    }
    outlet
    {
        type            fixedValue;
        value           uniform 0;
    }
    flap
    {
        type            zeroGradient;
    }
    upperWall
    {
        type            zeroGradient;
    }
    lowerWall
    {
        type            zeroGradient;
    }
    frontAndBack
    {
        type            empty;
    }
}


// ************************************************************************* //
