/*--------------------------------*- C++ -*----------------------------------*\
| =========                 |                                                 |
| \\      /  F ield         | OpenFOAM: The Open Source CFD Toolbox           |
|  \\    /   O peration     | Version:  2012                                  |
|   \\  /    A nd           | Website:  www.openfoam.com                      |
|    \\/     M anipulation  |                                                 |
\*---------------------------------------------------------------------------*/
FoamFile
{
    version     2.0;
    format      ascii;
    class       surfaceScalarField;
    location    "0.5";
    object      phi;
}
// * * * * * * * * * * * * * * * * * * * * * * * * * * * * * * * * * * * * * //

dimensions      [0 3 -1 0 0 0 0];
oriented        oriented;


internalField   nonuniform List<scalar> 
5457
(
0.198445
0.00149761
0.196613
0.00177546
0.194503
0.00205222
0.192063
0.00237672
0.189287
0.00270473
0.186176
0.00303122
0.182722
0.00336382
0.178913
0.00370936
0.174733
0.00407238
0.170161
0.00445619
0.165178
0.00486343
0.15976
0.00529601
0.153885
0.00575483
0.147532
0.00623947
0.140684
0.00674782
0.133326
0.00727558
0.125454
0.0078155
0.117073
0.00835743
0.108195
0.0088881
0.0988536
0.00939052
0.0890967
0.00984447
0.078993
0.0102275
0.0686306
0.0105161
0.0581176
0.0106872
0.0475796
0.0107199
0.0371573
0.0105973
0.027003
0.0103072
0.0172792
0.0098416
0.00808615
0.0092674
0.0081259
0.199959
0.00148171
0.199316
0.00236305
0.198285
0.00302467
0.196899
0.00369998
0.195148
0.00438489
0.193027
0.0050721
0.190529
0.00577237
0.187641
0.00649824
0.184346
0.00725911
0.180624
0.0080622
0.176452
0.00891351
0.171807
0.00981773
0.166663
0.0107778
0.160993
0.0117943
0.154772
0.0128647
0.147979
0.0139821
0.140599
0.0151346
0.132623
0.0163048
0.124047
0.0174691
0.114882
0.0185973
0.105154
0.0196533
0.0949009
0.0205972
0.0841767
0.0213879
0.0730467
0.0219866
0.0615826
0.0223631
0.0498499
0.022504
0.0378869
0.0224232
0.0256703
0.0221739
0.0130299
0.0219717
0.0211953
0.199809
0.00161569
0.199221
0.00289667
0.198252
0.00393511
0.196951
0.00493848
0.195318
0.00594725
0.193347
0.00696303
0.191031
0.00799813
0.18836
0.00906901
0.18532
0.0101897
0.181894
0.0113716
0.17806
0.0126245
0.173795
0.0139566
0.169074
0.015374
0.163869
0.01688
0.15815
0.0184737
0.15189
0.0201487
0.145064
0.0218922
0.137647
0.0236839
0.129614
0.0254952
0.120952
0.0272885
0.111655
0.0290189
0.101721
0.0306361
0.0911566
0.032088
0.0799755
0.0333266
0.0681934
0.0343159
0.0558219
0.0350449
0.0428446
0.0355505
0.029218
0.0359085
0.0148849
0.0363462
0.0360929
0.19973
0.00182876
0.199137
0.00343487
0.198185
0.00482988
0.196902
0.006158
0.195298
0.00748066
0.193367
0.00881293
0.191105
0.0101699
0.188502
0.0115709
0.185548
0.0130336
0.182227
0.0145732
0.178523
0.0162029
0.174416
0.0179347
0.169882
0.0197778
0.164897
0.021739
0.159432
0.0238202
0.153461
0.0260173
0.146953
0.0283202
0.139874
0.03071
0.132188
0.0331581
0.123862
0.0356267
0.114862
0.0380689
0.105152
0.0404313
0.0946999
0.042658
0.0834713
0.044696
0.071439
0.0465029
0.0585846
0.0480556
0.0449051
0.0493707
0.0304275
0.050481
0.0153126
0.0514734
0.0513958
0.199693
0.00207964
0.199087
0.00398496
0.198149
0.00571111
0.196887
0.00735585
0.195313
0.00898431
0.193421
0.0106234
0.191207
0.0122925
0.188662
0.0140133
0.185776
0.0158068
0.182537
0.0176916
0.178927
0.0196842
0.174928
0.0217998
0.170518
0.0240512
0.165674
0.0264482
0.16037
0.0289964
0.154576
0.0316959
0.148259
0.0345406
0.14138
0.0375162
0.133896
0.0405988
0.125756
0.0437553
0.116907
0.0469431
0.107287
0.0501116
0.0968305
0.053205
0.0854754
0.0561657
0.0731679
0.058939
0.0598808
0.0614729
0.0456664
0.0637071
0.0306633
0.065561
0.0152375
0.0668799
0.0666064
0.199676
0.00234775
0.199065
0.00454059
0.198142
0.00657578
0.19691
0.00852514
0.195372
0.0104504
0.193528
0.0123863
0.19137
0.0143573
0.188892
0.0163876
0.186083
0.0185009
0.182932
0.0207193
0.17942
0.0230626
0.175531
0.0255492
0.171243
0.0281955
0.166531
0.031015
0.161369
0.0340175
0.155726
0.0372084
0.149563
0.0405876
0.142836
0.0441474
0.135493
0.0478723
0.127471
0.0517376
0.118697
0.0557096
0.10909
0.0597443
0.0985623
0.0637879
0.0870315
0.0677756
0.0744354
0.071628
0.0607621
0.0752401
0.0461067
0.0784502
0.0307128
0.0809986
0.0151062
0.0824331
0.0816735
0.19967
0.00262161
0.199061
0.0050937
0.198159
0.0074201
0.19696
0.00966039
0.195467
0.0118717
0.193678
0.0140934
0.191587
0.0163546
0.189187
0.0186823
0.186467
0.0211032
0.183416
0.0236423
0.180018
0.0263227
0.176255
0.0291666
0.172103
0.0321942
0.167539
0.035423
0.162534
0.0388682
0.157051
0.0425416
0.15105
0.0464502
0.14448
0.050596
0.137278
0.0549737
0.129369
0.0595711
0.120664
0.0643667
0.111065
0.069326
0.100466
0.0743979
0.0887686
0.079507
0.0759075
0.0845381
0.0618873
0.0893146
0.0468312
0.093542
0.0310661
0.0967514
0.0152037
0.0982058
0.0968263
0.199671
0.00289426
0.199072
0.00563721
0.198195
0.00823955
0.197035
0.0107563
0.195593
0.0132413
0.193867
0.0157364
0.191852
0.0182747
0.189541
0.0208864
0.186923
0.0236008
0.183987
0.0264457
0.180719
0.0294479
0.177099
0.0326333
0.173105
0.036026
0.168712
0.0396484
0.163887
0.0435219
0.158594
0.0476654
0.152786
0.052095
0.146407
0.056824
0.139384
0.0618603
0.131631
0.0672071
0.123045
0.0728585
0.11351
0.0787926
0.1029
0.0849632
0.0911013
0.0912833
0.0780353
0.0975974
0.0636982
0.10365
0.048248
0.108962
0.0320575
0.112869
0.0157236
0.114416
0.112483
0.199677
0.00316112
0.199093
0.0061653
0.198245
0.00902937
0.197129
0.0118079
0.195745
0.0145527
0.19409
0.0173076
0.192161
0.0201087
0.189949
0.0229893
0.187445
0.0259813
0.184639
0.0291154
0.181517
0.0324218
0.178059
0.03593
0.174244
0.0396683
0.170047
0.0436646
0.165434
0.047947
0.160368
0.0525417
0.154797
0.0574763
0.148659
0.0627765
0.141881
0.0684652
0.13436
0.0745645
0.125984
0.0810875
0.116618
0.0880298
0.106115
0.0953557
0.0943368
0.102972
0.0811621
0.110693
0.0665632
0.118164
0.0507067
0.124714
0.0339404
0.12951
0.0167987
0.131403
0.129203
0.199686
0.00341894
0.199122
0.00667329
0.198308
0.00978499
0.197241
0.0128101
0.195921
0.0158
0.194344
0.0187997
0.192508
0.0218482
0.190405
0.0249812
0.188028
0.0282332
0.185365
0.0316379
0.182404
0.0352284
0.179127
0.0390377
0.175515
0.0430986
0.17154
0.0474447
0.167172
0.0521099
0.162372
0.0571299
0.157087
0.0625429
0.151259
0.0683872
0.144806
0.0747054
0.137615
0.0815401
0.129571
0.0889254
0.120525
0.096882
0.110302
0.105396
0.0987152
0.114392
0.0855757
0.123661
0.0708216
0.132734
0.0545357
0.140816
0.0369589
0.146911
0.0185579
0.149625
0.147679
0.199697
0.00366533
0.199157
0.00715734
0.198381
0.0105022
0.197368
0.0137585
0.196117
0.0169778
0.194625
0.0202064
0.19289
0.0234854
0.190905
0.026853
0.188665
0.030346
0.186158
0.0340006
0.183374
0.0378527
0.180296
0.0419387
0.176907
0.0462955
0.173182
0.0509617
0.169094
0.0559777
0.164601
0.0613881
0.159658
0.0672402
0.15421
0.0735876
0.148166
0.0804927
0.141421
0.0880163
0.133862
0.0962189
0.125325
0.105159
0.115601
0.114865
0.104436
0.125295
0.0915849
0.13623
0.0768626
0.147168
0.0601385
0.157272
0.0414817
0.165333
0.0212408
0.169666
0.16885
0.19971
0.00389844
0.199197
0.00761434
0.198463
0.0111774
0.197508
0.0146488
0.19633
0.018081
0.194929
0.0215217
0.193302
0.0250134
0.191444
0.0285966
0.18935
0.0323101
0.187011
0.0361921
0.184417
0.0402813
0.181556
0.0446167
0.178411
0.049239
0.174962
0.0541911
0.171183
0.0595196
0.167041
0.0652757
0.162495
0.0715167
0.157492
0.0783107
0.151951
0.0857345
0.145782
0.0938687
0.138873
0.102809
0.131051
0.112656
0.122088
0.12349
0.111693
0.135322
0.0995278
0.148
0.0851676
0.161136
0.0681532
0.173922
0.048205
0.184973
0.025379
0.192261
0.194168
0.199725
0.0041168
0.199241
0.00804173
0.198552
0.0118073
0.197658
0.0154774
0.196559
0.0191056
0.195254
0.0227405
0.193741
0.0264263
0.192017
0.030205
0.190077
0.0341172
0.187916
0.0382028
0.185526
0.0425024
0.182895
0.0470575
0.180013
0.0519116
0.176862
0.0571112
0.173423
0.0627072
0.16967
0.0687569
0.165568
0.0753259
0.161076
0.0824916
0.156131
0.090343
0.15066
0.0989833
0.144559
0.108538
0.137676
0.119146
0.129799
0.130942
0.120627
0.144028
0.109709
0.158423
0.0963679
0.173977
0.0796653
0.190146
0.0585533
0.205674
0.0322422
0.218281
0.226344
0.19974
0.0043193
0.199288
0.00843748
0.198647
0.0123894
0.197818
0.0162411
0.196801
0.0200477
0.195596
0.0238586
0.194202
0.027719
0.192618
0.0316723
0.19084
0.0357603
0.188866
0.0400244
0.186688
0.0445064
0.184302
0.0492494
0.181698
0.0542989
0.178865
0.0597037
0.17579
0.0655178
0.172457
0.0718021
0.168842
0.0786272
0.164918
0.0860764
0.160647
0.094248
0.155976
0.10326
0.150835
0.113256
0.14512
0.124404
0.13867
0.136893
0.131227
0.150928
0.122341
0.166726
0.11122
0.184494
0.0964445
0.204322
0.0756429
0.225932
0.0452684
0.248247
0.271503
0.199757
0.00450508
0.199338
0.00879993
0.198747
0.0129214
0.197984
0.0169375
0.197052
0.0209045
0.195951
0.0248724
0.194681
0.0288875
0.193242
0.0329939
0.191632
0.0372342
0.189851
0.0416506
0.187895
0.0462857
0.185762
0.0511835
0.183448
0.0563902
0.180948
0.0619556
0.178257
0.0679346
0.175368
0.0743896
0.172273
0.0813925
0.16896
0.0890281
0.165418
0.0973971
0.161629
0.106622
0.15757
0.116851
0.153204
0.128264
0.148467
0.141076
0.143239
0.155552
0.137282
0.172035
0.130094
0.190998
0.120578
0.213143
0.106239
0.239618
0.081067
0.272919
0.352203
-0.00806131
0.00810851
-0.0202539
0.0121601
-0.0355939
0.0152126
-0.053285
0.0175039
-0.0725337
0.0190477
-0.0926495
0.019934
-0.113036
0.0202459
-0.133161
0.0200362
-0.152518
0.0193223
-0.170596
0.0180977
-0.186868
0.0163421
-0.200787
0.0140314
-0.211792
0.0111511
-0.219329
0.00770936
-0.222869
0.00373201
-0.221978
-0.000688459
-0.216333
-0.0054385
-0.205859
-0.0102698
-0.19078
-0.0148809
-0.171565
-0.0190276
-0.148872
-0.0225196
-0.123486
-0.0252276
-0.0962633
-0.0270819
-0.0680717
-0.0280669
-0.0397268
-0.0282367
-0.0116829
-0.0279508
0.0154043
-0.0270056
0.0411849
-0.0257071
0.0661831
-0.0249292
-0.0268823
-0.0113791
0.0195312
-0.0253244
0.0260573
-0.0414205
0.031164
-0.0592411
0.0351306
-0.0782622
0.0378724
-0.0979692
0.0394671
-0.117864
0.0400098
-0.137461
0.0395542
-0.156272
0.0381093
-0.173791
0.0356459
-0.189485
0.0321139
-0.202794
0.0274604
-0.213142
0.0216518
-0.219954
0.0146993
-0.222722
0.00669571
-0.221025
-0.00217909
-0.214627
-0.0116278
-0.20353
-0.0211614
-0.187969
-0.030243
-0.16841
-0.0383973
-0.145507
-0.0452492
-0.120031
-0.0505456
-0.0928082
-0.0541634
-0.0646332
-0.0561171
-0.0361777
-0.0565842
-0.00812152
-0.0559143
0.018837
-0.053883
0.0445754
-0.0513723
0.0696164
-0.0499016
-0.0518229
-0.0133221
0.0328821
-0.0283772
0.0410331
-0.0447194
0.0473331
-0.0621446
0.0523505
-0.0803604
0.0558979
-0.0990441
0.0579901
-0.117826
0.0586781
-0.136307
0.0579755
-0.154054
0.0558526
-0.170599
0.0522382
-0.185427
0.0470357
-0.19798
0.0401474
-0.207672
0.0315092
-0.21392
0.0211356
-0.216186
0.00916617
-0.214056
-0.00409435
-0.207282
-0.0181872
-0.195899
-0.0323363
-0.180183
-0.0457576
-0.160628
-0.0577605
-0.1379
-0.0678018
-0.112768
-0.0755182
-0.086043
-0.0807469
-0.0584867
-0.0835482
-0.0307262
-0.0842366
-0.0036207
-0.0829268
0.022366
-0.0797885
0.0472924
-0.0762258
0.0714204
-0.0739612
-0.0751711
-0.0145245
0.0474176
-0.0301101
0.0565047
-0.0462644
0.0632924
-0.0629536
0.0688269
-0.0800896
0.072848
-0.0975154
0.0752723
-0.11499
0.0760638
-0.132213
0.0751668
-0.148819
0.0724822
-0.164374
0.0678671
-0.178372
0.0611515
-0.190239
0.0521687
-0.199352
0.0408056
-0.205079
0.0270668
-0.20685
0.0111544
-0.204237
-0.00648287
-0.197042
-0.0251586
-0.185363
-0.0438004
-0.169524
-0.0613896
-0.150048
-0.0770405
-0.127608
-0.0900644
-0.102961
-0.100006
-0.0768884
-0.106676
-0.0501241
-0.110186
-0.0233372
-0.110914
0.0026004
-0.108771
0.0274216
-0.104528
0.0512595
-0.0999909
0.0741744
-0.0968076
-0.0968523
-0.0150706
0.0624863
-0.0305818
0.0718752
-0.0461003
0.07861
-0.061749
0.0842686
-0.0775968
0.0885224
-0.0936021
0.0911596
-0.109639
0.092044
-0.125493
0.0910251
-0.140859
0.0879074
-0.155334
0.0824495
-0.168416
0.0743823
-0.179513
0.0634464
-0.187962
0.0494608
-0.193087
0.0324148
-0.194273
0.0125741
-0.191128
-0.00939084
-0.183505
-0.0325485
-0.171577
-0.0555033
-0.155724
-0.0770281
-0.13649
-0.0960748
-0.114535
-0.111838
-0.0905929
-0.123787
-0.0654091
-0.131715
-0.0396933
-0.135774
-0.0141739
-0.136324
0.0104099
-0.13326
0.0338942
-0.12793
0.0564311
-0.122455
0.0779198
-0.118228
-0.116803
-0.0149045
0.0773757
-0.02972
0.0865299
-0.0441513
0.0928489
-0.0584385
0.098368
-0.0727602
0.102693
-0.0871627
0.105479
-0.101604
0.10647
-0.115943
0.105411
-0.129927
0.101993
-0.143187
0.0958563
-0.155232
0.0866107
-0.165452
0.0738795
-0.173146
0.0573877
-0.177589
0.0371034
-0.178102
0.0133394
-0.174377
-0.0128631
-0.166346
-0.040334
-0.154278
-0.0673365
-0.138593
-0.0924913
-0.119833
-0.114628
-0.098634
-0.132852
-0.0756754
-0.146582
-0.0516549
-0.155588
-0.0272493
-0.16005
-0.00335849
-0.160104
0.0196089
-0.156132
0.0416691
-0.149908
0.0627362
-0.143448
0.0826321
-0.138054
-0.134958
-0.013956
0.0912953
-0.0274543
0.0998533
-0.0403517
0.105572
-0.0529346
0.1108
-0.0654504
0.115097
-0.0780257
0.118015
-0.0906725
0.11915
-0.103309
0.118144
-0.115733
0.114566
-0.127609
0.107924
-0.138461
0.0976855
-0.147666
0.0833322
-0.154485
0.0644699
-0.158124
0.0410132
-0.157948
0.0134372
-0.153624
-0.0169185
-0.145269
-0.0484291
-0.13325
-0.0791102
-0.117996
-0.107515
-0.100017
-0.132395
-0.0798993
-0.15278
-0.0582488
-0.168064
-0.0357168
-0.17797
-0.0130104
-0.182625
0.00901121
-0.182013
0.0302004
-0.177226
0.0506797
-0.170304
0.0701113
-0.162806
0.0882727
-0.156147
-0.151261
-0.0122043
0.103449
-0.0237945
0.111268
-0.0347097
0.116336
-0.0452349
0.121225
-0.0556398
0.125454
-0.0661116
0.128506
-0.0767161
0.129847
-0.0874194
0.129
-0.098066
0.125414
-0.108357
0.118454
-0.117836
0.107431
-0.125877
0.0916577
-0.131706
0.070593
-0.134483
0.0440884
-0.133487
0.0127377
-0.128612
-0.0215068
-0.1201
-0.0566674
-0.108409
-0.0905449
-0.0939304
-0.121755
-0.0770891
-0.149018
-0.0584171
-0.171256
-0.038417
-0.187891
-0.0176916
-0.198543
0.00283411
-0.203019
0.0227547
-0.201821
0.0421762
-0.19655
0.0608685
-0.188913
0.0784918
-0.180355
0.0947931
-0.172378
-0.165671
-0.00973316
0.113131
-0.0188894
0.120267
-0.0273697
0.124705
-0.03546
0.12928
-0.0434227
0.133446
-0.0514784
0.13665
-0.0597514
0.13828
-0.0682444
0.137712
-0.0768483
0.134278
-0.0853015
0.127197
-0.0931771
0.115618
-0.0998664
0.0986697
-0.104572
0.0756257
-0.106481
0.0463244
-0.104586
0.0111601
-0.0992546
-0.0265321
-0.0908431
-0.0647907
-0.0798476
-0.101273
-0.0665536
-0.134802
-0.0512349
-0.164111
-0.034383
-0.187907
-0.0163537
-0.205743
0.00199799
-0.21674
0.0201091
-0.220996
0.0379759
-0.219573
0.0554343
-0.213911
0.0721434
-0.205538
0.0877957
-0.195932
0.102127
-0.186639
-0.178156
-0.00675376
0.119845
-0.0129995
0.126393
-0.0186033
0.130259
-0.0238558
0.134577
-0.029019
0.138734
-0.0343377
0.142142
-0.0399737
0.144143
-0.0459592
0.143981
-0.0522185
0.140855
-0.0585328
0.133853
-0.0645137
0.121956
-0.0696209
0.104138
-0.0730679
0.0794313
-0.0739075
0.0475184
-0.0713303
0.00892417
-0.0656997
-0.0318394
-0.0577582
-0.0724285
-0.0478848
-0.110867
-0.0362023
-0.146229
-0.0228027
-0.177278
-0.00806381
-0.20244
0.00739566
-0.221022
0.0230631
-0.23225
0.038872
-0.236669
0.0545704
-0.235156
0.0698386
-0.229081
0.0843765
-0.219991
0.0979119
-0.209392
0.110182
-0.198839
-0.188697
-0.00341738
0.123245
-0.006309
0.129217
-0.00873364
0.132716
-0.0107804
0.136765
-0.0128168
0.141003
-0.0151074
0.144715
-0.0178159
0.147159
-0.0210053
0.147513
-0.0246179
0.144838
-0.0284763
0.138099
-0.0322458
0.126125
-0.0355523
0.107844
-0.0375651
0.0818328
-0.0369223
0.0472561
-0.0337941
0.00616181
-0.0283864
-0.0369057
-0.0214372
-0.0790606
-0.0130488
-0.118964
-0.00330674
-0.155707
0.00768203
-0.18803
0.0196743
-0.214222
0.0323832
-0.233547
0.045624
-0.245331
0.0590356
-0.249944
0.07232
-0.248323
0.0851935
-0.241855
0.0973973
-0.232109
0.108696
-0.220615
0.11884
-0.208912
-0.19729
0.000240266
0.123018
0.000746481
0.128712
0.00191419
0.131684
0.00338198
0.135546
0.00469497
0.140025
0.00560261
0.144198
0.00598637
0.147186
0.00579882
0.148113
0.00507206
0.145981
0.0039307
0.139666
0.00253392
0.127954
0.00139711
0.109409
0.00189545
0.0817537
0.0040709
0.0454868
0.00743034
0.00318839
0.01182
-0.0409377
0.0171803
-0.0840921
0.0234867
-0.12497
0.030819
-0.162768
0.0391925
-0.196161
0.0486435
-0.223458
0.0588217
-0.243538
0.0694655
-0.255813
0.0802601
-0.2606
0.0909345
-0.25888
0.10125
-0.25207
0.110994
-0.241767
0.119971
-0.229515
0.127953
-0.216822
-0.203953
0.00394433
0.119125
0.00839548
0.124358
0.0133616
0.126975
0.0184258
0.130847
0.0230915
0.135792
0.0271522
0.140615
0.0305693
0.144272
0.0333679
0.145807
0.0356009
0.144213
0.037426
0.138299
0.0390904
0.126745
0.0410717
0.107878
0.0436615
0.0796096
0.0467586
0.0428188
0.0499415
0.000406317
0.0531235
-0.0437499
0.0565682
-0.0871978
0.0606795
-0.128773
0.0657069
-0.167518
0.0717098
-0.201917
0.0786249
-0.230156
0.0861771
-0.2509
0.0941009
-0.263573
0.102137
-0.268496
0.110068
-0.266693
0.117716
-0.259617
0.124923
-0.248887
0.131535
-0.236051
0.137354
-0.222569
-0.208723
0.00829384
0.110958
0.0171037
0.115789
0.0258413
0.118627
0.0342684
0.122886
0.0420027
0.128568
0.0489589
0.134196
0.0551995
0.138589
0.060817
0.14074
0.065918
0.139627
0.070662
0.134048
0.0752796
0.122608
0.080048
0.103577
0.0846452
0.0754746
0.0885654
0.039342
0.0914784
-0.00209535
0.0935313
-0.045424
0.0953489
-0.0886689
0.0975728
-0.130683
0.100565
-0.170228
0.104378
-0.205479
0.10888
-0.234438
0.113829
-0.255658
0.119001
-0.26858
0.124215
-0.27357
0.129339
-0.271697
0.134271
-0.264447
0.138916
-0.253444
0.143168
-0.240226
0.146862
-0.226189
-0.211663
0.0170433
0.094307
0.0277558
0.105391
0.039406
0.107427
0.0506242
0.112179
0.0609032
0.118832
0.0703353
0.12533
0.0790679
0.130433
0.0872187
0.133161
0.0949135
0.132479
0.102288
0.127196
0.109475
0.115925
0.116428
0.097109
0.12255
0.0698231
0.127172
0.0351685
0.129987
-0.00449332
0.131327
-0.0463788
0.132062
-0.0890532
0.132978
-0.131281
0.134433
-0.171398
0.136409
-0.207201
0.138723
-0.23653
0.141175
-0.257918
0.143633
-0.270872
0.146031
-0.275826
0.148349
-0.273895
0.150579
-0.266575
0.152698
-0.255474
0.154647
-0.242097
0.156292
-0.227761
-0.212864
0.207425
0.00467956
0.207027
0.00913975
0.206467
0.0134189
0.205749
0.0175869
0.204875
0.0217007
0.203845
0.0258112
0.202662
0.0299648
0.201327
0.0342063
0.19984
0.0385787
0.198204
0.0431243
0.196418
0.0478859
0.194484
0.0529073
0.192404
0.0582344
0.19018
0.0639163
0.187815
0.0700072
0.185313
0.0765675
0.182683
0.0836667
0.179934
0.0913857
0.177083
0.0998199
0.174152
0.109084
0.171177
0.119314
0.168206
0.130676
0.165309
0.143363
0.162585
0.157614
0.160188
0.173722
0.158368
0.192071
0.157578
0.213175
0.159328
0.237157
0.172884
0.258828
0.266702
0.25804
0.212463
0.00483828
0.212094
0.00944819
0.21158
0.0138693
0.210924
0.0181728
0.210128
0.0224164
0.209195
0.0266509
0.208127
0.0309234
0.206929
0.0352783
0.205604
0.0397584
0.204155
0.0444059
0.202587
0.0492626
0.200906
0.0543714
0.19912
0.0597765
0.197238
0.0655249
0.195273
0.0716672
0.193242
0.0782597
0.191171
0.0853654
0.18909
0.0930556
0.187047
0.101412
0.185106
0.110531
0.18336
0.120522
0.181943
0.131505
0.181056
0.143614
0.181003
0.156982
0.182285
0.171717
0.185777
0.187835
0.193118
0.205092
0.207067
0.222525
0.227324
0.238055
0.249513
0.24426
0.217623
0.00497939
0.217288
0.00972174
0.216825
0.0142674
0.216237
0.0186885
0.215528
0.0230431
0.214701
0.027382
0.213762
0.0317519
0.212715
0.0361967
0.211565
0.0407587
0.210321
0.0454787
0.20899
0.0503974
0.207584
0.0555552
0.206116
0.0609938
0.204604
0.0667562
0.20307
0.0728876
0.201544
0.0794372
0.200066
0.0864583
0.19869
0.0940084
0.197488
0.10215
0.196561
0.11095
0.196051
0.120482
0.196149
0.130812
0.197134
0.141987
0.199404
0.154032
0.203533
0.166884
0.210333
0.180329
0.22078
0.193963
0.235553
0.207144
0.253813
0.219334
0.227207
0.275885
0.22291
0.00510115
0.222611
0.00995701
0.222204
0.0146083
0.221691
0.0191278
0.221077
0.0235733
0.220367
0.0279952
0.219566
0.0324396
0.218682
0.0369496
0.217723
0.041566
0.2167
0.046328
0.215624
0.051274
0.214511
0.0564415
0.213382
0.0618681
0.212261
0.0675915
0.21118
0.07365
0.210179
0.0800834
0.209313
0.0869329
0.208654
0.0942394
0.208293
0.102043
0.208351
0.110378
0.209007
0.119277
0.210476
0.128758
0.21304
0.138796
0.217095
0.149322
0.223121
0.160192
0.231665
0.171134
0.24326
0.18176
0.258442
0.191435
0.277961
0.199421
0.203611
0.301352
0.228326
0.00520191
0.228068
0.0101508
0.227721
0.0148875
0.227289
0.0194846
0.226778
0.0239996
0.226192
0.0284822
0.225541
0.0329771
0.224831
0.0375263
0.224075
0.0421686
0.223286
0.0469412
0.22248
0.0518792
0.221676
0.0570166
0.220901
0.0623862
0.220187
0.0680193
0.219571
0.073946
0.219102
0.0801951
0.218848
0.0867939
0.218896
0.0937662
0.219346
0.101131
0.220321
0.108894
0.222014
0.117045
0.224649
0.125561
0.228475
0.134375
0.233822
0.143359
0.241074
0.152329
0.25061
0.161011
0.26282
0.169015
0.27804
0.175764
0.296439
0.18069
0.183237
0.316638
0.233875
0.00528013
0.233659
0.0103002
0.233377
0.0151007
0.233033
0.0197536
0.23263
0.0243157
0.232178
0.0288353
0.231684
0.033356
0.231159
0.0379176
0.230617
0.042557
0.230073
0.0473084
0.229547
0.0522034
0.229064
0.0572718
0.228652
0.0625407
0.228352
0.0680346
0.228207
0.0737756
0.228267
0.0797815
0.228606
0.0860635
0.229325
0.0926297
0.230529
0.0994804
0.232336
0.106597
0.234921
0.11394
0.238495
0.121452
0.243277
0.129039
0.249515
0.136556
0.257486
0.143807
0.267447
0.150529
0.279597
0.156399
0.293961
0.161016
0.310351
0.164023
0.165445
0.327994
0.239558
0.00533442
0.239389
0.0104026
0.239176
0.0152441
0.238923
0.01993
0.238637
0.0245158
0.238324
0.0290483
0.237996
0.0335692
0.237664
0.0381164
0.237343
0.0427239
0.237053
0.0474228
0.236815
0.052241
0.236658
0.0572032
0.236613
0.0623309
0.236725
0.0676418
0.237043
0.0731496
0.237619
0.0788614
0.238527
0.0847753
0.239865
0.0908851
0.241742
0.0971736
0.244274
0.103604
0.247604
0.11012
0.251909
0.116645
0.257368
0.123072
0.264161
0.129254
0.272467
0.13501
0.28242
0.140119
0.294078
0.144341
0.307354
0.147414
0.322035
0.149109
0.149629
0.337726
0.245381
0.00536357
0.24526
0.0104556
0.24512
0.0153145
0.244963
0.0200098
0.244797
0.0245953
0.24463
0.0291161
0.244473
0.0336118
0.244339
0.0381175
0.244247
0.0426647
0.244215
0.0472809
0.244269
0.05199
0.244439
0.0568119
0.244759
0.0617623
0.245274
0.0668524
0.246036
0.0720876
0.247102
0.0774651
0.248542
0.0829739
0.250445
0.0885954
0.25291
0.0942993
0.256045
0.100037
0.259971
0.105744
0.264823
0.111334
0.270733
0.116701
0.277824
0.12171
0.286195
0.126208
0.295899
0.130022
0.30692
0.132978
0.319148
0.134912
0.332382
0.135682
0.135547
0.346358
0.251345
0.00536656
0.251275
0.0104574
0.25121
0.0153093
0.251153
0.0199899
0.251112
0.0245508
0.251094
0.0290352
0.251113
0.0334802
0.251182
0.0379183
0.25132
0.0423779
0.251548
0.0468829
0.251894
0.0514532
0.252386
0.0561041
0.253063
0.0608459
0.253967
0.0656836
0.25515
0.0706154
0.25667
0.0756312
0.258591
0.0807122
0.260993
0.0858308
0.263963
0.0909481
0.267591
0.0960105
0.271976
0.100949
0.277214
0.105681
0.283399
0.110105
0.290602
0.114109
0.298869
0.117568
0.308203
0.120352
0.318552
0.122342
0.329802
0.123436
0.341769
0.123556
0.122959
0.354271
0.257453
0.00534263
0.257436
0.0104066
0.257449
0.0152267
0.257495
0.019868
0.257581
0.0243801
0.257716
0.0288036
0.257912
0.033173
0.258185
0.0375183
0.258554
0.0418644
0.25904
0.0462321
0.259671
0.0506371
0.260478
0.0550906
0.261497
0.0595979
0.26277
0.0641587
0.264346
0.0687655
0.266278
0.0734026
0.268628
0.0780457
0.271461
0.0826617
0.274851
0.0872076
0.278871
0.0916283
0.283594
0.0958572
0.289088
0.0998173
0.29541
0.103422
0.302597
0.106578
0.310658
0.109188
0.319566
0.11116
0.329254
0.112415
0.339612
0.112893
0.350488
0.112554
0.111629
0.36175
0.26371
0.00529123
0.263747
0.0103022
0.263839
0.0150653
0.263989
0.0196429
0.264204
0.0240821
0.264492
0.0284208
0.264866
0.0326909
0.265342
0.0369195
0.265939
0.0411285
0.266678
0.0453352
0.267586
0.049552
0.268694
0.053786
0.270037
0.0580386
0.271653
0.0623051
0.273588
0.0665737
0.275891
0.0708249
0.278613
0.0750314
0.28181
0.0791574
0.28554
0.0831591
0.28986
0.0869834
0.294821
0.0905692
0.300465
0.0938489
0.306824
0.0967502
0.313907
0.099199
0.321702
0.101124
0.330167
0.10246
0.33923
0.103157
0.348792
0.103182
0.358728
0.102519
0.101368
0.368938
0.270118
0.00521209
0.27021
0.0101437
0.270382
0.0148249
0.270637
0.0193146
0.270981
0.0236572
0.271422
0.0278881
0.271972
0.0320364
0.272648
0.0361262
0.273466
0.0401766
0.27445
0.0442019
0.275623
0.0482113
0.277016
0.0522085
0.278659
0.0561918
0.280591
0.0601532
0.282849
0.0640781
0.285476
0.0679451
0.288516
0.0717253
0.292013
0.0753831
0.296011
0.0788761
0.300551
0.0821557
0.305665
0.0851681
0.311377
0.0878561
0.317699
0.0901612
0.324622
0.0920269
0.33212
0.0934013
0.340146
0.0942415
0.348629
0.0945167
0.357482
0.0942117
0.366603
0.0933239
0.0920233
0.375911
0.276681
0.00510521
0.276828
0.00993139
0.277081
0.0145057
0.27744
0.0188838
0.277911
0.0231072
0.278503
0.0272084
0.279226
0.0312138
0.280095
0.0351448
0.281128
0.0390178
0.282344
0.0428444
0.283768
0.0466309
0.285426
0.0503787
0.287346
0.0540835
0.289561
0.0577352
0.292104
0.0613179
0.295011
0.0648091
0.298316
0.0681807
0.302054
0.0713984
0.306255
0.0744235
0.310946
0.0772128
0.316145
0.0797204
0.321862
0.0818996
0.328093
0.0837044
0.334819
0.0850929
0.342008
0.0860288
0.349608
0.0864847
0.357557
0.0864437
0.365778
0.0859016
0.374183
0.084864
0.0834735
0.38271
0.283402
0.00497084
0.283604
0.00966573
0.283936
0.014109
0.284399
0.0183526
0.284996
0.022435
0.285734
0.0263858
0.286625
0.0302291
0.28768
0.0339835
0.288916
0.0376631
0.290352
0.0412768
0.292009
0.0448291
0.29391
0.0483191
0.29608
0.0517412
0.298546
0.0550842
0.301337
0.0583314
0.30448
0.0614612
0.308001
0.0644467
0.311925
0.0672569
0.316272
0.0698571
0.321057
0.0722103
0.326287
0.0742786
0.33196
0.0760245
0.338062
0.0774133
0.34457
0.0784146
0.351446
0.079004
0.358642
0.0791651
0.366099
0.0788909
0.37375
0.0781836
0.381523
0.0770537
0.0756196
0.389363
0.290284
0.00480949
0.290541
0.00934785
0.290952
0.0136365
0.291515
0.0177235
0.292234
0.0216444
0.293114
0.0254261
0.294165
0.0290899
0.295397
0.0326522
0.296825
0.0361249
0.298466
0.039515
0.300336
0.0428252
0.302457
0.0460534
0.30485
0.049193
0.307536
0.0522325
0.310537
0.0551558
0.313874
0.0579425
0.317566
0.0605682
0.321628
0.0630053
0.326073
0.065224
0.330904
0.0671935
0.336121
0.068883
0.341714
0.0702636
0.347663
0.0713095
0.35394
0.0719994
0.360508
0.072318
0.36732
0.0722567
0.374323
0.0718147
0.38146
0.0709987
0.388668
0.0698215
0.0683802
0.395902
0.297333
0.00462187
0.297643
0.00897927
0.298129
0.0130907
0.29879
0.0170003
0.299626
0.0207406
0.300642
0.0243358
0.301845
0.0278048
0.303243
0.031162
0.30485
0.0344171
0.306679
0.0375759
0.308743
0.0406395
0.311061
0.0436053
0.313649
0.0464663
0.316523
0.0492114
0.319699
0.0518256
0.323192
0.0542905
0.327014
0.0565844
0.331174
0.0586837
0.335674
0.0605634
0.340513
0.0621984
0.345683
0.0635645
0.351169
0.0646398
0.356948
0.0654057
0.36299
0.0658481
0.369257
0.0659583
0.375707
0.0657332
0.382293
0.0651761
0.388963
0.064296
0.395665
0.0631071
0.0616881
0.402357
0.30455
0.00440892
0.304912
0.00856188
0.305472
0.0124746
0.306226
0.0161873
0.307174
0.0197294
0.308318
0.0231225
0.309664
0.0263835
0.311217
0.0295246
0.312988
0.0325542
0.314988
0.0354766
0.317226
0.0382924
0.319717
0.0409983
0.322473
0.0435876
0.325505
0.0460502
0.328825
0.0483726
0.33244
0.0505385
0.336356
0.0525295
0.340577
0.0543258
0.345099
0.055907
0.349915
0.057253
0.355013
0.0583453
0.360374
0.0591679
0.365972
0.0597079
0.371778
0.0599567
0.377756
0.0599101
0.383867
0.0595689
0.390067
0.0589389
0.396312
0.0580306
0.402557
0.0568582
0.0554854
0.408766
0.311941
0.00417172
0.312352
0.00809789
0.312982
0.0117915
0.313826
0.0152891
0.31488
0.018617
0.316144
0.0217944
0.317622
0.024836
0.319318
0.0277526
0.321239
0.0305509
0.323392
0.0332345
0.325785
0.0358034
0.328427
0.0382545
0.331325
0.0405816
0.334488
0.0427756
0.337921
0.0448249
0.341627
0.0467156
0.345608
0.0484325
0.34986
0.0499592
0.354377
0.0512795
0.359147
0.052378
0.364154
0.0532409
0.369377
0.0538566
0.37479
0.054217
0.380364
0.0543172
0.386066
0.0541566
0.391858
0.0537383
0.397704
0.0530697
0.403562
0.0521617
0.409395
0.0510283
0.0497206
0.415169
0.319508
0.00391147
0.319968
0.0075897
0.320665
0.0110453
0.321592
0.014311
0.322745
0.0174102
0.324122
0.0203599
0.325722
0.0231728
0.327549
0.0258581
0.329605
0.0284216
0.331894
0.0308662
0.334422
0.0331915
0.337193
0.0353948
0.340211
0.0374707
0.34348
0.0394113
0.347001
0.041207
0.350773
0.0428463
0.354792
0.0443167
0.359052
0.0456054
0.363541
0.0466997
0.368247
0.0475881
0.373151
0.0482604
0.378229
0.0487091
0.383458
0.0489292
0.388809
0.0489189
0.394249
0.0486795
0.399745
0.0482161
0.405264
0.0475365
0.410772
0.0466518
0.416232
0.0455752
0.0443473
0.421618
0.327258
0.00362941
0.327762
0.00703981
0.328522
0.0102398
0.329529
0.0132582
0.330774
0.0161159
0.332254
0.0188275
0.333967
0.021404
0.335911
0.0238533
0.338088
0.0261803
0.340498
0.0283872
0.343143
0.0304738
0.346024
0.0324378
0.349142
0.0342745
0.352495
0.0359777
0.356082
0.0375393
0.359897
0.0389502
0.363934
0.0402006
0.368183
0.0412805
0.372631
0.0421805
0.377261
0.0428919
0.382053
0.043408
0.386987
0.0437239
0.392035
0.0438371
0.397172
0.0437479
0.402367
0.0434592
0.407591
0.0429766
0.412813
0.0423084
0.418002
0.0414651
0.423129
0.0404592
0.0393226
0.428167
0.335192
0.00332678
0.33574
0.00645069
0.336559
0.00937858
0.337639
0.0121359
0.338971
0.0147407
0.340546
0.0172054
0.342361
0.0195395
0.344412
0.0217495
0.346697
0.0238396
0.349213
0.0258117
0.351959
0.0276657
0.354933
0.0293997
0.358131
0.0310099
0.361551
0.0324915
0.365185
0.0338381
0.369027
0.0350426
0.373067
0.0360976
0.377292
0.0369955
0.381687
0.0377294
0.386234
0.0382934
0.390914
0.0386829
0.395705
0.0388953
0.400581
0.0389299
0.405517
0.0387883
0.410487
0.0384743
0.415462
0.0379938
0.420415
0.0373549
0.425319
0.0365674
0.430148
0.0356427
0.0346061
0.434879
0.343318
0.00300472
0.343905
0.00582461
0.344781