/*--------------------------------*- C++ -*----------------------------------*\
| =========                 |                                                 |
| \\      /  F ield         | OpenFOAM: The Open Source CFD Toolbox           |
|  \\    /   O peration     | Version:  2012                                  |
|   \\  /    A nd           | Website:  www.openfoam.com                      |
|    \\/     M anipulation  |                                                 |
\*---------------------------------------------------------------------------*/
FoamFile
{
    version     2.0;
    format      ascii;
    class       pointVectorField;
    location    "0.5";
    object      pointDisplacement;
}
// * * * * * * * * * * * * * * * * * * * * * * * * * * * * * * * * * * * * * //

dimensions      [0 1 0 0 0 0 0];


internalField   nonuniform List<vector> 
5828
(
(0 0 0)
(0.000290851 0 0)
(0.000582827 0 0)
(0.000905316 0 0)
(0.00128412 0 0)
(0.00174098 0 0)
(0.00229529 0 0)
(0.00296423 0 0)
(0.00376243 0 0)
(0.00470099 0 0)
(0.00578628 0 0)
(0.00701839 0 0)
(0.00838943 0 0)
(0.00988164 0 0)
(0.0114656 0 0)
(0.0130982 0 0)
(0.0147213 0 0)
(0.0162612 0 0)
(0.0176299 0 0)
(0.0187288 0 0)
(0.0194538 0 0)
(0.0197016 0 0)
(0.0193802 0 0)
(0.0184204 0 0)
(0.0167898 0 0)
(0.0145095 0 0)
(0.0116704 0 0)
(0.00845639 0 0)
(0.00519381 0 0)
(0.00250337 0 0)
(1.42555e-17 0 0)
(0 0 0)
(0.000286991 0 1.3208e-06)
(0.000575735 0 2.59951e-06)
(0.000895144 0 3.92299e-06)
(0.00127067 0 5.36598e-06)
(0.001724 0 6.99029e-06)
(0.00227453 0 8.85406e-06)
(0.00293955 0 1.10218e-05)
(0.00373387 0 1.35767e-05)
(0.0046689 0 1.66364e-05)
(0.00575134 0 2.0372e-05)
(0.00698185 0 2.50346e-05)
(0.00835319 0 3.09973e-05)
(0.00984846 0 3.87886e-05)
(0.0114394 0 4.91608e-05)
(0.0130843 0 6.31681e-05)
(0.0147266 0 8.22337e-05)
(0.0162943 0 0.000108243)
(0.0177009 0 0.000143496)
(0.0188501 0 0.00019089)
(0.0196399 0 0.000254058)
(0.0199688 0 0.000337268)
(0.019747 0 0.000445485)
(0.0189073 0 0.000584426)
(0.017419 0 0.000760689)
(0.0153074 0 0.000982326)
(0.0126712 0 0.00125751)
(0.0097077 0 0.00159115)
(0.00676196 0 0.00197374)
(0.00445435 0 0.00234169)
(0.00281092 0 0.00269753)
(0 0 0)
(0.000282306 0 2.62529e-06)
(0.000567215 0 5.16799e-06)
(0.000883027 0 7.79974e-06)
(0.00125482 0 1.06677e-05)
(0.00170428 0 1.38928e-05)
(0.00225094 0 1.7588e-05)
(0.00291241 0 2.18773e-05)
(0.00370401 0 2.69199e-05)
(0.00463783 0 3.29411e-05)
(0.0057215 0 4.0268e-05)
(0.00695697 0 4.93786e-05)
(0.00833868 0 6.09921e-05)
(0.00985176 0 7.61166e-05)
(0.0114709 0 9.61886e-05)
(0.0131581 0 0.000123233)
(0.0148608 0 0.000159969)
(0.016511 0 0.000209939)
(0.0180267 0 0.000277544)
(0.019318 0 0.000368348)
(0.020289 0 0.000489149)
(0.0208443 0 0.000647817)
(0.0209004 0 0.000853275)
(0.0203971 0 0.0011153)
(0.0193108 0 0.00144454)
(0.0176737 0 0.00185196)
(0.0155966 0 0.00234535)
(0.0133009 0 0.00292323)
(0.0111465 0 0.00355827)
(0.00969809 0 0.00415523)
(0.00862511 0 0.00464202)
(0 0 0)
(0.000280815 0 3.90478e-06)
(0.000564643 0 7.68726e-06)
(0.00087958 0 1.15999e-05)
(0.0012507 0 1.5858e-05)
(0.00169986 0 2.06369e-05)
(0.00224692 0 2.60977e-05)
(0.00290999 0 3.24147e-05)
(0.00370519 0 3.98106e-05)
(0.00464567 0 4.86007e-05)
(0.00574026 0 5.92426e-05)
(0.00699281 0 7.23933e-05)
(0.00840009 0 8.90412e-05)
(0.00995002 0 0.000110609)
(0.0116218 0 0.000139123)
(0.0133826 0 0.000177405)
(0.0151855 0 0.000229211)
(0.0169688 0 0.000299372)
(0.0186585 0 0.000394065)
(0.0201739 0 0.000520999)
(0.021428 0 0.000689276)
(0.022335 0 0.000909272)
(0.0228214 0 0.00119233)
(0.022838 0 0.00155011)
(0.0223726 0 0.00199392)
(0.0214629 0 0.00253198)
(0.0202204 0 0.00316547)
(0.0188697 0 0.00387943)
(0.0177417 0 0.00462025)
(0.0172695 0 0.00525621)
(0.0168935 0 0.00572351)
(0 0 0)
(0.000279659 0 5.15082e-06)
(0.000562652 0 1.0139e-05)
(0.000877027 0 1.52924e-05)
(0.00124794 0 2.08886e-05)
(0.0016975 0 2.71504e-05)
(0.002246 0 3.42779e-05)
(0.00291227 0 4.24827e-05)
(0.00371351 0 5.20331e-05)
(0.00466435 0 6.33112e-05)
(0.00577492 0 7.68507e-05)
(0.00705104 0 9.34278e-05)
(0.00849321 0 0.000114222)
(0.010094 0 0.000140984)
(0.0118378 0 0.000176187)
(0.0136979 0 0.000223201)
(0.0156347 0 0.000286513)
(0.017596 0 0.0003719)
(0.0195189 0 0.000486735)
(0.021333 0 0.000640015)
(0.0229624 0 0.000842129)
(0.0243335 0 0.00110457)
(0.0253841 0 0.00143921)
(0.0260753 0 0.00185707)
(0.026404 0 0.00236637)
(0.0264125 0 0.00296865)
(0.0262034 0 0.00365501)
(0.0259612 0 0.00439376)
(0.0259405 0 0.00510834)
(0.0264149 0 0.00565624)
(0.0266298 0 0.00601012)
(0 0 0)
(0.000278791 0 6.35297e-06)
(0.000561193 0 1.25017e-05)
(0.000875296 0 1.88424e-05)
(0.00124641 0 2.57076e-05)
(0.00169696 0 3.33593e-05)
(0.00224777 0 4.20249e-05)
(0.00291853 0 5.19374e-05)
(0.00372778 0 6.33872e-05)
(0.00469163 0 7.67782e-05)
(0.00582175 0 9.26706e-05)
(0.00712681 0 0.000111921)
(0.00861201 0 0.000135835)
(0.0102755 0 0.000166337)
(0.0121073 0 0.000206137)
(0.0140879 0 0.00025891)
(0.0161873 0 0.000329551)
(0.0183645 0 0.000424355)
(0.0205687 0 0.000551191)
(0.022742 0 0.000719467)
(0.0248219 0 0.000939803)
(0.0267474 0 0.00122339)
(0.0284673 0 0.00158082)
(0.0299501 0 0.00202023)
(0.0311943 0 0.00254444)
(0.0322377 0 0.00314692)
(0.0331632 0 0.0038073)
(0.0340844 0 0.0044804)
(0.0351381 0 0.00508169)
(0.0364208 0 0.00548443)
(0.0370844 0 0.00571834)
(0 0 0)
(0.000278179 0 7.5014e-06)
(0.000560217 0 1.47549e-05)
(0.000874302 0 2.22173e-05)
(0.00124595 0 3.02677e-05)
(0.00169795 0 3.91971e-05)
(0.00225172 0 4.92475e-05)
(0.00292786 0 6.06547e-05)
(0.00374621 0 7.37022e-05)
(0.00472463 0 8.87723e-05)
(0.00587737 0 0.000106427)
(0.00721638 0 0.000127546)
(0.00875125 0 0.000153457)
(0.010486 0 0.000186099)
(0.0124173 0 0.000228215)
(0.0145343 0 0.000283539)
(0.0168173 0 0.000357015)
(0.0192376 0 0.000454955)
(0.0217582 0 0.000585109)
(0.0243349 0 0.00075652)
(0.0269196 0 0.000979031)
(0.029464 0 0.00126235)
(0.0319262 0 0.0016145)
(0.0342777 0 0.00203943)
(0.0365104 0 0.00253385)
(0.0386416 0 0.00308328)
(0.0407122 0 0.003658)
(0.0427637 0 0.00420626)
(0.0447926 0 0.00465044)
(0.0467095 0 0.00489657)
(0.0476955 0 0.0050234)
(0 0 0)
(0.000277796 0 8.58737e-06)
(0.000559673 0 1.68808e-05)
(0.000873952 0 2.53888e-05)
(0.00124638 0 3.4528e-05)
(0.00170015 0 4.46077e-05)
(0.00225731 0 5.58711e-05)
(0.00293937 0 6.85383e-05)
(0.00376736 0 8.28587e-05)
(0.00476125 0 9.91691e-05)
(0.00593874 0 0.000117986)
(0.00731491 0 0.000140127)
(0.00890323 0 0.000166837)
(0.0107142 0 0.00019995)
(0.0127519 0 0.000242061)
(0.0150145 0 0.0002967)
(0.0174935 0 0.000368531)
(0.0201731 0 0.000463435)
(0.0230305 0 0.0005885)
(0.0260365 0 0.000751746)
(0.0291573 0 0.000961482)
(0.0323569 0 0.00122516)
(0.0356004 0 0.00154753)
(0.0388579 0 0.00192811)
(0.0421063 0 0.00235798)
(0.0453285 0 0.00281648)
(0.048508 0 0.00326915)
(0.0515991 0 0.00366507)
(0.0544538 0 0.00394178)
(0.0568251 0 0.00404296)
(0.0580071 0 0.00406594)
(0 0 0)
(0.000277618 0 9.60351e-06)
(0.000559516 0 1.88645e-05)
(0.000874153 0 2.83338e-05)
(0.00124752 0 3.84557e-05)
(0.00170324 0 4.95477e-05)
(0.00226398 0 6.18407e-05)
(0.00295219 0 7.55222e-05)
(0.00379018 0 9.07862e-05)
(0.00479984 0 0.000107895)
(0.00600204 0 0.000127264)
(0.00741581 0 0.000149579)
(0.00905929 0 0.000175925)
(0.0109483 0 0.000207911)
(0.0130941 0 0.000247809)
(0.0155047 0 0.000298739)
(0.018183 0 0.000364799)
(0.0211259 0 0.000451083)
(0.0243251 0 0.000563597)
(0.0277664 0 0.00070888)
(0.0314306 0 0.000893242)
(0.0352927 0 0.00112154)
(0.0393234 0 0.00139527)
(0.0434874 0 0.0017101)
(0.0477404 0 0.0020531)
(0.0520225 0 0.00240047)
(0.0562522 0 0.00271706)
(0.060266 0 0.00295964)
(0.0637809 0 0.00308538)
(0.0664465 0 0.00307148)
(0.0677054 0 0.00301947)
(0 0 0)
(0.000277631 0 1.05442e-05)
(0.000559705 0 2.06946e-05)
(0.000874819 0 3.10349e-05)
(0.00124921 0 4.20275e-05)
(0.00170689 0 5.39877e-05)
(0.00227118 0 6.71223e-05)
(0.0029654 0 8.15707e-05)
(0.00381317 0 9.74518e-05)
(0.00483826 0 0.000114924)
(0.00606426 0 0.000134264)
(0.00751413 0 0.000155968)
(0.00921087 0 0.00018088)
(0.0111754 0 0.000210283)
(0.0134265 0 0.000246028)
(0.0159815 0 0.000290659)
(0.0188526 0 0.000347476)
(0.0220505 0 0.000420531)
(0.0255808 0 0.000514497)
(0.029444 0 0.0006342)
(0.0336347 0 0.000783778)
(0.0381385 0 0.000965575)
(0.0429305 0 0.00117837)
(0.047969 0 0.00141522)
(0.0531857 0 0.00166141)
(0.0584784 0 0.00189317)
(0.063684 0 0.00207907)
(0.0685096 0 0.00218752)
(0.0725584 0 0.00219537)
(0.0754063 0 0.00210531)
(0.076657 0 0.0020112)
(0 0 0)
(0.000277825 0 1.14055e-05)
(0.000560212 0 2.23636e-05)
(0.000875883 0 3.34811e-05)
(0.0012513 0 4.52296e-05)
(0.00171084 0 5.79127e-05)
(0.00227839 0 7.17028e-05)
(0.00297814 0 8.66783e-05)
(0.00383492 0 0.000102867)
(0.00487426 0 0.000120301)
(0.00612227 0 0.000139087)
(0.00760543 0 0.000159493)
(0.00935061 0 0.000182053)
(0.0113842 0 0.000207656)
(0.0137327 0 0.000237651)
(0.0164204 0 0.000273917)
(0.0194704 0 0.000318857)
(0.0229046 0 0.000375356)
(0.0267399 0 0.000446611)
(0.0309922 0 0.00053568)
(0.0356702 0 0.000644613)
(0.0407683 0 0.00077364)
(0.0462667 0 0.00091969)
(0.0521194 0 0.00107468)
(0.0582423 0 0.00122421)
(0.0644905 0 0.00134752)
(0.0705997 0 0.00142138)
(0.0761655 0 0.00142648)
(0.0806908 0 0.00135505)
(0.0836748 0 0.00122524)
(0.0848779 0 0.00111344)
(0 0 0)
(0.000278199 0 1.21855e-05)
(0.000561027 0 2.38679e-05)
(0.000877305 0 3.56677e-05)
(0.00125368 0 4.80576e-05)
(0.00171485 0 6.13214e-05)
(0.0022852 0 7.55887e-05)
(0.00298966 0 9.08674e-05)
(0.00385416 0 0.000107083)
(0.0049058 0 0.000124125)
(0.00617287 0 0.000141911)
(0.00768478 0 0.000160456)
(0.00947207 0 0.000179955)
(0.011566 0 0.000200862)
(0.0139987 0 0.000223957)
(0.0168018 0 0.000250401)
(0.0200082 0 0.000281692)
(0.0236482 0 0.000319587)
(0.0277503 0 0.000365819)
(0.0323446 0 0.000421777)
(0.0374501 0 0.000487791)
(0.0430695 0 0.000562413)
(0.0491919 0 0.000641494)
(0.0557767 0 0.000717149)
(0.0627316 0 0.000777223)
(0.0698623 0 0.00080705)
(0.076826 0 0.000793298)
(0.0831333 0 0.000728046)
(0.088166 0 0.000614459)
(0.0913172 0 0.000475206)
(0.0924713 0 0.00036356)
(0 0 0)
(0.000278765 0 1.28839e-05)
(0.000562164 0 2.52074e-05)
(0.000879083 0 3.7596e-05)
(0.00125631 0 5.05159e-05)
(0.00171879 0 6.42249e-05)
(0.00229132 0 7.88035e-05)
(0.00299942 0 9.41836e-05)
(0.00386994 0 0.000110182)
(0.00493127 0 0.000126539)
(0.00621347 0 0.000142975)
(0.00774839 0 0.000159241)
(0.00956961 0 0.000175192)
(0.0117123 0 0.000190836)
(0.0142134 0 0.000206387)
(0.0171108 0 0.000222277)
(0.0204436 0 0.000239111)
(0.0242509 0 0.000257574)
(0.0285716 0 0.000278134)
(0.0334448 0 0.000300771)
(0.0388978 0 0.000324557)
(0.0449458 0 0.000346854)
(0.0515897 0 0.000363031)
(0.0587968 0 0.000366321)
(0.066468 0 0.000348501)
(0.0743871 0 0.000302218)
(0.082187 0 0.000223787)
(0.0893117 0 0.000116549)
(0.0949948 0 -7.88587e-06)
(0.0984508 0 -0.000131002)
(0.0995971 0 -0.000225851)
(0 0 0)
(0.000279546 0 1.35024e-05)
(0.000563664 0 2.63854e-05)
(0.00088126 0 3.92724e-05)
(0.00125921 0 5.26164e-05)
(0.00172264 0 6.66443e-05)
(0.0022966 0 8.13844e-05)
(0.00300709 0 9.66903e-05)
(0.00388162 0 0.000112269)
(0.00494955 0 0.000127714)
(0.00624231 0 0.000142548)
(0.00779354 0 0.000156271)
(0.00963913 0 0.000168406)
(0.0118173 0 0.000178544)
(0.0143683 0 0.000186367)
(0.0173347 0 0.000191642)
(0.0207608 0 0.000194168)
(0.0246917 0 0.000193658)
(0.0291732 0 0.000189526)
(0.0342496 0 0.000180649)
(0.0399578 0 0.000165118)
(0.0463249 0 0.000139697)
(0.0533603 0 9.99278e-05)
(0.0610378 0 4.06523e-05)
(0.0692661 0 -4.24668e-05)
(0.0778513 0 -0.000150584)
(0.0864505 0 -0.000278479)
(0.0944948 0 -0.000411164)
(0.101098 0 -0.000527059)
(0.10518 0 -0.000614094)
(0.106469 0 -0.000669494)
(0 0 0)
(0.000280584 0 1.40437e-05)
(0.000565598 0 2.74082e-05)
(0.000883933 0 4.07077e-05)
(0.00126249 0 5.43769e-05)
(0.00172647 0 6.86088e-05)
(0.00230109 0 8.33784e-05)
(0.00301262 0 9.84626e-05)
(0.00388897 0 0.000113463)
(0.00496014 0 0.000127833)
(0.00625845 0 0.000140914)
(0.0078187 0 0.000151972)
(0.00967831 0 0.000160232)
(0.0118774 0 0.000164912)
(0.0144585 0 0.00016523)
(0.0174669 0 0.000160386)
(0.0209498 0 0.000149508)
(0.0249562 0 0.000131532)
(0.0295353 0 0.000105051)
(0.0347352 0 6.81259e-05)
(0.0405982 0 1.81392e-05)
(0.047157 0 -4.83477e-05)
(0.0544259 0 -0.000135309)
(0.0623876 0 -0.00024646)
(0.0709706 0 -0.000383664)
(0.0800209 0 -0.000544394)
(0.0892609 0 -0.000717957)
(0.0982098 0 -0.00088055)
(0.106023 0 -0.00099418)
(0.11139 0 -0.00103227)
(0.113284 0 -0.00103571)
(0 0 0)
(0.000281948 0 1.45154e-05)
(0.000568093 0 2.82908e-05)
(0.000887271 0 4.19248e-05)
(0.00126636 0 5.58299e-05)
(0.00173052 0 7.01634e-05)
(0.00230503 0 8.48479e-05)
(0.0030162 0 9.95873e-05)
(0.00389212 0 0.000113886)
(0.00496305 0 0.000127072)
(0.00626172 0 0.000138325)
(0.00782347 0 0.000146704)
(0.00968642 0 0.000151182)
(0.0118915 0 0.000150663)
(0.0144823 0 0.000143984)
(0.017505 0 0.000129896)
(0.0210079 0 0.000107009)
(0.0250408 0 7.36941e-05)
(0.0296536 0 2.79674e-05)
(0.0348946 0 -3.26236e-05)
(0.0408065 0 -0.00011106)
(0.047422 0 -0.000210792)
(0.0547561 0 -0.000335378)
(0.0627946 0 -0.000487707)
(0.0714777 0 -0.000668756)
(0.0806794 0 -0.000875906)
(0.0901788 0 -0.00110096)
(0.0996018 0 -0.00132826)
(0.108259 0 -0.00153726)
(0.114709 0 -0.00171244)
(0.120046 0 -0.00138469)
(0 0 0)
(0.000290851 0 0)
(0.000582827 0 0)
(0.000905316 0 0)
(0.00128412 0 0)
(0.00174098 0 0)
(0.00229529 0 0)
(0.00296423 0 0)
(0.00376243 0 0)
(0.00470099 0 0)
(0.00578628 0 0)
(0.00701839 0 0)
(0.00838943 0 0)
(0.00988164 0 0)
(0.0114656 0 0)
(0.0130982 0 0)
(0.0147213 0 0)
(0.0162612 0 0)
(0.0176299 0 0)
(0.0187288 0 0)
(0.0194538 0 0)
(0.0197016 0 0)
(0.0193802 0 0)
(0.0184204 0 0)
(0.0167898 0 0)
(0.0145095 0 0)
(0.0116704 0 0)
(0.00845639 0 0)
(0.00519381 0 0)
(0.00250337 0 0)
(1.21431e-17 0 0)
(0 0 0)
(0.000286991 0 1.3208e-06)
(0.000575735 0 2.59951e-06)
(0.000895144 0 3.92299e-06)
(0.00127067 0 5.36598e-06)
(0.001724 0 6.99029e-06)
(0.00227453 0 8.85406e-06)
(0.00293955 0 1.10218e-05)
(0.00373387 0 1.35767e-05)
(0.0046689 0 1.66364e-05)
(0.00575134 0 2.0372e-05)
(0.00698185 0 2.50346e-05)
(0.00835319 0 3.09973e-05)
(0.00984846 0 3.87886e-05)
(0.0114394 0 4.91608e-05)
(0.0130843 0 6.31681e-05)
(0.0147266 0 8.22337e-05)
(0.0162943 0 0.000108243)
(0.0177009 0 0.000143496)
(0.0188501 0 0.00019089)
(0.0196399 0 0.000254058)
(0.0199688 0 0.000337268)
(0.019747 0 0.000445485)
(0.0189073 0 0.000584426)
(0.017419 0 0.000760689)
(0.0153074 0 0.000982326)
(0.0126712 0 0.00125751)
(0.0097077 0 0.00159115)
(0.00676196 0 0.00197374)
(0.00445435 0 0.00234169)
(0.00281092 0 0.00269753)
(0 0 0)
(0.000282306 0 2.62529e-06)
(0.000567215 0 5.16799e-06)
(0.000883027 0 7.79974e-06)
(0.00125482 0 1.06677e-05)
(0.00170428 0 1.38928e-05)
(0.00225094 0 1.7588e-05)
(0.00291241 0 2.18773e-05)
(0.00370401 0 2.69199e-05)
(0.00463783 0 3.29411e-05)
(0.0057215 0 4.0268e-05)
(0.00695697 0 4.93786e-05)
(0.00833868 0 6.09921e-05)
(0.00985176 0 7.61166e-05)
(0.0114709 0 9.61886e-05)
(0.0131581 0 0.000123233)
(0.0148608 0 0.000159969)
(0.016511 0 0.000209939)
(0.0180267 0 0.000277544)
(0.019318 0 0.000368348)
(0.020289 0 0.000489149)
(0.0208443 0 0.000647817)
(0.0209004 0 0.000853275)
(0.0203971 0 0.0011153)
(0.0193108 0 0.00144454)
(0.0176737 0 0.00185196)
(0.0155966 0 0.00234535)
(0.0133009 0 0.00292323)
(0.0111465 0 0.00355827)
(0.00969809 0 0.00415523)
(0.0086251 0 0.00464202)
(0 0 0)
(0.000280815 0 3.90478e-06)
(0.000564643 0 7.68726e-06)
(0.00087958 0 1.15999e-05)
(0.0012507 0 1.5858e-05)
(0.00169986 0 2.06369e-05)
(0.00224692 0 2.60977e-05)
(0.00290999 0 3.24147e-05)
(0.00370519 0 3.98106e-05)
(0.00464567 0 4.86007e-05)
(0.00574026 0 5.92426e-05)
(0.00699281 0 7.23933e-05)
(0.00840009 0 8.90412e-05)
(0.00995002 0 0.000110609)
(0.0116218 0 0.000139123)
(0.0133826 0 0.000177405)
(0.0151855 0 0.000229211)
(0.0169688 0 0.000299372)
(0.0186585 0 0.000394065)
(0.0201739 0 0.000520999)
(0.021428 0 0.000689276)
(0.022335 0 0.000909272)
(0.0228214 0 0.00119233)
(0.022838 0 0.00155011)
(0.0223726 0 0.00199392)
(0.0214629 0 0.00253198)
(0.0202204 0 0.00316547)
(0.0188697 0 0.00387943)
(0.0177417 0 0.00462025)
(0.0172695 0 0.00525621)
(0.0168935 0 0.00572349)
(0 0 0)
(0.000279659 0 5.15082e-06)
(0.000562652 0 1.0139e-05)
(0.000877027 0 1.52924e-05)
(0.00124794 0 2.08886e-05)
(0.0016975 0 2.71504e-05)
(0.002246 0 3.42779e-05)
(0.00291227 0 4.24827e-05)
(0.00371351 0 5.20331e-05)
(0.00466435 0 6.33112e-05)
(0.00577492 0 7.68507e-05)
(0.00705104 0 9.34278e-05)
(0.00849321 0 0.000114222)
(0.010094 0 0.000140984)
(0.0118378 0 0.000176187)
(0.0136979 0 0.000223201)
(0.0156347 0 0.000286513)
(0.017596 0 0.0003719)
(0.0195189 0 0.000486735)
(0.021333 0 0.000640015)
(0.0229624 0 0.000842129)
(0.0243335 0 0.00110457)
(0.0253841 0 0.00143921)
(0.0260753 0 0.00185707)
(0.026404 0 0.00236637)
(0.0264125 0 0.00296865)
(0.0262034 0 0.00365501)
(0.0259612 0 0.00439376)
(0.0259405 0 0.00510834)
(0.0264149 0 0.00565624)
(0.0266298 0 0.00601011)
(0 0 0)
(0.000278791 0 6.35297e-06)
(0.000561193 0 1.25017e-05)
(0.000875296 0 1.88424e-05)
(0.00124641 0 2.57076e-05)
(0.00169696 0 3.33593e-05)
(0.00224777 0 4.20249e-05)
(0.00291853 0 5.19374e-05)
(0.00372778 0 6.33872e-05)
(0.00469163 0 7.67782e-05)
(0.00582175 0 9.26706e-05)
(0.00712681 0 0.000111921)
(0.00861201 0 0.000135835)
(0.0102755 0 0.000166337)
(0.0121073 0 0.000206137)
(0.0140879 0 0.00025891)
(0.0161873 0 0.000329551)
(0.0183645 0 0.000424355)
(0.0205687 0 0.000551191)
(0.022742 0 0.000719467)
(0.0248219 0 0.000939803)
(0.0267474 0 0.00122339)
(0.0284673 0 0.00158082)
(0.0299501 0 0.00202023)
(0.0311943 0 0.00254444)
(0.0322377 0 0.00314692)
(0.0331632 0 0.0038073)
(0.0340844 0 0.0044804)
(0.0351381 0 0.00508169)
(0.0364208 0 0.00548443)
(0.0370844 0 0.00571834)
(0 0 0)
(0.000278179 0 7.5014e-06)
(0.000560217 0 1.47549e-05)
(0.000874302 0 2.22173e-05)
(0.00124595 0 3.02677e-05)
(0.00169795 0 3.91971e-05)
(0.00225172 0 4.92475e-05)
(0.00292786 0 6.06547e-05)
(0.00374621 0 7.37022e-05)
(0.00472463 0 8.87723e-05)
(0.00587737 0 0.000106427)
(0.00721638 0 0.000127546)
(0.00875125 0 0.000153457)
(0.010486 0 0.000186099)
(0.0124173 0 0.000228215)
(0.0145343 0 0.000283539)
(0.0168173 0 0.000357015)
(0.0192376 0 0.000454955)
(0.0217582 0 0.000585109)
(0.0243349 0 0.00075652)
(0.0269196 0 0.000979031)
(0.029464 0 0.00126235)
(0.0319262 0 0.0016145)
(0.0342777 0 0.00203943)
(0.0365104 0 0.00253385)
(0.0386416 0 0.00308328)
(0.0407122 0 0.003658)
(0.0427637 0 0.00420626)
(0.0447926 0 0.00465044)
(0.0467095 0 0.00489657)
(0.0476955 0 0.00502338)
(0 0 0)
(0.000277796 0 8.58737e-06)
(0.000559673 0 1.68808e-05)
(0.000873952 0 2.53888e-05)
(0.00124638 0 3.4528e-05)
(0.00170015 0 4.46077e-05)
(0.00225731 0 5.58711e-05)
(0.00293937 0 6.85383e-05)
(0.00376736 0 8.28587e-05)
(0.00476125 0 9.91691e-05)
(0.00593874 0 0.000117986)
(0.00731491 0 0.000140127)
(0.00890323 0 0.000166837)
(0.0107142 0 0.00019995)
(0.0127519 0 0.000242061)
(0.0150145 0 0.0002967)
(0.0174935 0 0.000368531)
(0.0201731 0 0.000463435)
(0.0230305 0 0.0005885)
(0.0260365 0 0.000751746)
(0.0291573 0 0.000961482)
(0.0323569 0 0.00122516)
(0.0356004 0 0.00154753)
(0.0388579 0 0.00192811)
(0.0421063 0 0.00235798)
(0.0453285 0 0.00281648)
(0.048508 0 0.00326915)
(0.0515991 0 0.00366507)
(0.0544538 0 0.00394178)
(0.0568251 0 0.00404296)
(0.0580071 0 0.00406592)
(0 0 0)
(0.000277618 0 9.60351e-06)
(0.000559516 0 1.88645e-05)
(0.000874153 0 2.83338e-05)
(0.00124752 0 3.84557e-05)
(0.00170324 0 4.95477e-05)
(0.00226398 0 6.18407e-05)
(0.00295219 0 7.55222e-05)
(0.00379018 0 9.07862e-05)
(0.00479984 0 0.000107895)
(0.00600204 0 0.000127264)
(0.00741581 0 0.000149579)
(0.00905929 0 0.000175925)
(0.0109483 0 0.000207911)
(0.0130941 0 0.000247809)
(0.0155047 0 0.000298739)
(0.018183 0 0.000364799)
(0.0211259 0 0.000451083)
(0.0243251 0 0.000563597)
(0.0277664 0 0.00070888)
(0.0314306 0 0.000893242)
(0.0352927 0 0.00112154)
(0.0393234 0 0.00139527)
(0.0434874 0 0.0017101)
(0.0477404 0 0.0020531)
(0.0520225 0 0.00240047)
(0.0562522 0 0.00271706)
(0.060266 0 0.00295964)
(0.0637809 0 0.00308538)
(0.0664465 0 0.00307148)
(0.0677054 0 0.00301948)
(0 0 0)
(0.000277631 0 1.05442e-05)
(0.000559705 0 2.06946e-05)
(0.000874819 0 3.10349e-05)
(0.00124921 0 4.20275e-05)
(0.00170689 0 5.39877e-05)
(0.00227118 0 6.71223e-05)
(0.0029654 0 8.15707e-05)
(0.00381317 0 9.74518e-05)
(0.00483826 0 0.000114924)
(0.00606426 0 0.000134264)
(0.00751413 0 0.000155968)
(0.00921087 0 0.00018088)
(0.0111754 0 0.000210283)
(0.0134265 0 0.000246028)
(0.0159815 0 0.000290659)
(0.0188526 0 0.000347476)
(0.0220505 0 0.000420531)
(0.0255808 0 0.000514497)
(0.029444 0 0.0006342)
(0.0336347 0 0.000783778)
(0.0381385 0 0.000965575)
(0.0429305 0 0.00117837)
(0.047969 0 0.00141522)
(0.0531857 0 0.00166141)
(0.0584784 0 0.00189317)
(0.063684 0 0.00207907)
(0.0685096 0 0.00218752)
(0.0725584 0 0.00219537)
(0.0754063 0 0.00210531)
(0.076657 0 0.00201119)
(0 0 0)
(0.000277825 0 1.14055e-05)
(0.000560212 0 2.23636e-05)
(0.000875883 0 3.34811e-05)
(0.0012513 0 4.52296e-05)
(0.00171084 0 5.79127e-05)
(0.00227839 0 7.17028e-05)
(0.00297814 0 8.66783e-05)
(0.00383492 0 0.000102867)
(0.00487426 0 0.000120301)
(0.00612227 0 0.000139087)
(0.00760543 0 0.000159493)
(0.00935061 0 0.000182053)
(0.0113842 0 0.000207656)
(0.0137327 0 0.000237651)
(0.0164204 0 0.000273917)
(0.0194704 0 0.000318857)
(0.0229046 0 0.000375356)
(0.0267399 0 0.000446611)
(0.0309922 0 0.00053568)
(0.0356702 0 0.000644613)
(0.0407683 0 0.00077364)
(0.0462667 0 0.00091969)
(0.0521194 0 0.00107468)
(0.0582423 0 0.00122421)
(0.0644905 0 0.00134752)
(0.0705997 0 0.00142138)
(0.0761655 0 0.00142648)
(0.0806908 0 0.00135505)
(0.0836748 0 0.00122524)
(0.0848779 0 0.00111343)
(0 0 0)
(0.000278199 0 1.21855e-05)
(0.000561027 0 2.38679e-05)
(0.000877305 0 3.56677e-05)
(0.00125368 0 4.80576e-05)
(0.00171485 0 6.13214e-05)
(0.0022852 0 7.55887e-05)
(0.00298966 0 9.08674e-05)
(0.00385416 0 0.000107083)
(0.0049058 0 0.000124125)
(0.00617287 0 0.000141911)
(0.00768478 0 0.000160456)
(0.00947207 0 0.000179955)
(0.011566 0 0.000200862)
(0.0139987 0 0.000223957)
(0.0168018 0 0.000250401)
(0.0200082 0 0.000281692)
(0.0236482 0 0.000319587)
(0.0277503 0 0.000365819)
(0.0323446 0 0.000421777)
(0.0374501 0 0.000487791)
(0.0430695 0 0.000562413)
(0.0491919 0 0.000641494)
(0.0557767 0 0.000717149)
(0.0627316 0 0.000777223)
(0.0698623 0 0.00080705)
(0.076826 0 0.000793298)
(0.0831333 0 0.000728046)
(0.088166 0 0.000614459)
(0.0913172 0 0.000475206)
(0.0924714 0 0.000363556)
(0 0 0)
(0.000278765 0 1.28839e-05)
(0.000562164 0 2.52074e-05)
(0.000879083 0 3.7596e-05)
(0.00125631 0 5.05159e-05)
(0.00171879 0 6.42249e-05)
(0.00229132 0 7.88035e-05)
(0.00299942 0 9.41836e-05)
(0.00386994 0 0.000110182)
(0.00493127 0 0.000126539)
(0.00621347 0 0.000142975)
(0.00774839 0 0.000159241)
(0.00956961 0 0.000175192)
(0.0117123 0 0.000190836)
(0.0142134 0 0.000206387)
(0.0171108 0 0.000222277)
(0.0204436 0 0.000239111)
(0.0242509 0 0.000257574)
(0.0285716 0 0.000278134)
(0.0334448 0 0.000300771)
(0.0388978 0 0.000324557)
(0.0449458 0 0.000346854)
(0.0515897 0 0.000363031)
(0.0587968 0 0.000366321)
(0.066468 0 0.000348501)
(0.0743871 0 0.000302218)
(0.082187 0 0.000223787)
(0.0893117 0 0.000116549)
(0.0949948 0 -7.88587e-06)
(0.0984508 0 -0.000131002)
(0.0995971 0 -0.000225866)
(0 0 0)
(0.000279546 0 1.35024e-05)
(0.000563664 0 2.63854e-05)
(0.00088126 0 3.92724e-05)
(0.00125921 0 5.26164e-05)
(0.00172264 0 6.66443e-05)
(0.0022966 0 8.13844e-05)
(0.00300709 0 9.66903e-05)
(0.00388162 0 0.000112269)
(0.00494955 0 0.000127714)
(0.00624231 0 0.000142548)
(0.00779354 0 0.000156271)
(0.00963913 0 0.000168406)
(0.0118173 0 0.000178544)
(0.0143683 0 0.000186367)
(0.0173347 0 0.000191642)
(0.0207608 0 0.000194168)
(0.0246917 0 0.000193658)
(0.0291732 0 0.000189526)
(0.0342496 0 0.000180649)
(0.0399578 0 0.000165118)
(0.0463249 0 0.000139697)
(0.0533603 0 9.99278e-05)
(0.0610378 0 4.06523e-05)
(0.0692661 0 -4.24668e-05)
(0.0778513 0 -0.000150584)
(0.0864505 0 -0.000278479)
(0.0944948 0 -0.000411164)
(0.101098 0 -0.000527059)
(0.10518 0 -0.000614094)
(0.106469 0 -0.000669496)
(0 0 0)
(0.000280584 0 1.40437e-05)
(0.000565598 0 2.74082e-05)
(0.000883933 0 4.07077e-05)
(0.00126249 0 5.43769e-05)
(0.00172647 0 6.86088e-05)
(0.00230109 0 8.33784e-05)
(0.00301262 0 9.84626e-05)
(0.00388897 0 0.000113463)
(0.00496014 0 0.000127833)
(0.00625845 0 0.000140914)
(0.0078187 0 0.000151972)
(0.00967831 0 0.000160232)
(0.0118774 0 0.000164912)
(0.0144585 0 0.00016523)
(0.0174669 0 0.000160386)
(0.0209498 0 0.000149508)
(0.0249562 0 0.000131532)
(0.0295353 0 0.000105051)
(0.0347352 0 6.81259e-05)
(0.0405982 0 1.81392e-05)
(0.047157 0 -4.83477e-05)
(0.0544259 0 -0.000135309)
(0.0623876 0 -0.00024646)
(0.0709706 0 -0.000383664)
(0.0800209 0 -0.000544394)
(0.0892609 0 -0.000717957)
(0.0982098 0 -0.00088055)
(0.106023 0 -0.00099418)
(0.11139 0 -0.00103227)
(0.113284 0 -0.00103569)
(0 0 0)
(0.000281948 0 1.45154e-05)
(0.000568093 0 2.82908e-05)
(0.000887271 0 4.19248e-05)
(0.00126636 0 5.58299e-05)
(0.00173052 0 7.01634e-05)
(0.00230503 0 8.48479e-05)
(0.0030162 0 9.95873e-05)
(0.00389212 0 0.000113886)
(0.00496305 0 0.000127072)
(0.00626172 0 0.000138325)
(0.00782347 0 0.000146704)
(0.00968642 0 0.000151182)
(0.0118915 0 0.000150663)
(0.0144823 0 0.000143984)
(0.017505 0 0.000129896)
(0.0210079 0 0.000107009)
(0.0250408 0 7.36941e-05)
(0.0296536 0 2.79674e-05)
(0.0348946 0 -3.26236e-05)
(0.0408065 0 -0.00011106)
(0.047422 0 -0.000210792)
(0.0547561 0 -0.000335378)
(0.0627946 0 -0.000487707)
(0.0714777 0 -0.000668756)
(0.0806794 0 -0.000875906)
(0.0901788 0 -0.00110096)
(0.0996018 0 -0.00132826)
(0.108259 0 -0.00153726)
(0.114709 0 -0.00171244)
(0.120046 0 -0.00138466)
(-4.99292e-17 0 0)
(0.00286264 0 0)
(0.00674584 0 0)
(0.0115182 0 0)
(0.0161303 0 0)
(0.0199976 0 0)
(0.0228654 0 0)
(0.0246883 0 0)
(0.025539 0 0)
(0.0255485 0 0)
(0.0248666 0 0)
(0.0236447 0 0)
(0.0220269 0 0)
(0.0201437 0 0)
(0.0181086 0 0)
(0.0160179 0 0)
(0.0139503 0 0)
(0.0119676 0 0)
(0.0101149 0 0)
(0.00842328 0 0)
(0.00691111 0 0)
(0.00558583 0 0)
(0.00444552 0 0)
(0.00348111 0 0)
(0.00267805 0 0)
(0.00201754 0 0)
(0.00147752 0 0)
(0.00103352 0 0)
(0.000659281 0 0)
(0.000325408 0 0)
(0 0 0)
(0.00261696 0 -0.0028567)
(0.00480286 0 -0.00270278)
(0.00846862 0 -0.00255261)
(0.0129735 0 -0.00229384)
(0.0173252 0 -0.00200846)
(0.0209564 0 -0.00172986)
(0.0236165 0 -0.00147006)
(0.0252637 0 -0.00123442)
(0.0259709 0 -0.00102428)
(0.025865 0 -0.000839789)
(0.0250911 0 -0.000680049)
(0.0237967 0 -0.000543472)
(0.0221226 0 -0.000428257)
(0.0201969 0 -0.000332377)
(0.0181307 0 -0.000253649)
(0.0160178 0 -0.000189993)
(0.0139353 0 -0.000139377)
(0.0119434 0 -9.98452e-05)
(0.0100859 0 -6.95361e-05)
(0.00839243 0 -4.68109e-05)
(0.00688072 0 -3.02158e-05)
(0.00555743 0 -1.84247e-05)
(0.00442002 0 -1.03273e-05)
(0.003459 0 -4.99839e-06)
(0.00265951 0 -1.69181e-06)
(0.00200258 0 1.81035e-07)
(0.00146596 0 1.06877e-06)
(0.00102513 0 1.29993e-06)
(0.000653951 0 1.1043e-06)
(0.000323029 0 6.35886e-07)
(0 0 0)
(0.00810902 0 -0.00523328)
(0.0100456 0 -0.00505134)
(0.0132666 0 -0.00479306)
(0.0171225 0 -0.00435159)
(0.0207918 0 -0.0038411)
(0.0237816 0 -0.00332693)
(0.0258745 0 -0.00283792)
(0.0270414 0 -0.00238912)
(0.027353 0 -0.00198707)
(0.0269246 0 -0.00163256)
(0.0258903 0 -0.00132437)
(0.0243881 0 -0.00105996)
(0.0225497 0 -0.000836104)
(0.0204964 0 -0.00064932)
(0.0183329 0 -0.000495824)
(0.0161472 0 -0.000371576)
(0.0140117 0 -0.000272674)
(0.0119826 0 -0.000195375)
(0.0101001 0 -0.000136102)
(0.00839013 0 -9.16212e-05)
(0.00686854 0 -5.90829e-05)
(0.00554028 0 -3.59568e-05)
(0.00440115 0 -2.00809e-05)
(0.00344057 0 -9.63969e-06)
(0.00264284 0 -3.1705e-06)
(0.00198843 0 4.8279e-07)
(0.00145469 0 2.20278e-06)
(0.00101691 0 2.63318e-06)
(0.000648808 0 2.22347e-06)
(0.000320798 0 1.2767e-06)
(0 0 0)
(0.0160461 0 -0.00714807)
(0.0176315 0 -0.0069595)
(0.0203528 0 -0.00664066)
(0.0233718 0 -0.00607669)
(0.0260975 0 -0.00540229)
(0.0281725 0 -0.00470695)
(0.0294487 0 -0.00403615)
(0.0299152 0 -0.00341304)
(0.0296379 0 -0.00284936)
(0.0287209 0 -0.00234855)
(0.0272865 0 -0.00191042)
(0.0254604 0 -0.00153261)
(0.0233628 0 -0.00121137)
(0.021104 0 -0.000942309)
(0.0187799 0 -0.000720499)
(0.0164708 0 -0.000540518)
(0.0142418 0 -0.000396959)
(0.0121433 0 -0.000284566)
(0.0102102 0 -0.000198327)
(0.00846436 0 -0.000133556)
(0.00691758 0 -8.60805e-05)
(0.00557163 0 -5.2294e-05)
(0.00442045 0 -2.90782e-05)
(0.00345197 0 -1.38149e-05)
(0.00264926 0 -4.37272e-06)
(0.00199185 0 9.40982e-07)
(0.00145644 0 3.41926e-06)
(0.00101794 0 4.00554e-06)
(0.000649541 0 3.3589e-06)
(0.000321229 0 1.92267e-06)
(0 0 0)
(0.0255393 0 -0.00862525)
(0.0267851 0 -0.00843847)
(0.0289367 0 -0.00807707)
(0.0310149 0 -0.00743459)
(0.0326592 0 -0.00665204)
(0.033673 0 -0.00583238)
(0.0339828 0 -0.00503114)
(0.0336007 0 -0.00427759)
(0.0325952 0 -0.00358774)
(0.0310648 0 -0.0029689)
(0.0291214 0 -0.00242326)
(0.0268789 0 -0.00194971)
(0.0244454 0 -0.00154499)
(0.0219187 0 -0.00120449)
(0.0193839 0 -0.00092261)
(0.0169117 0 -0.000693132)
(0.0145583 0 -0.000509589)
(0.0123661 0 -0.000365549)
(0.0103642 0 -0.000254822)
(0.00856938 0 -0.000171565)
(0.00698823 0 -0.0001105)
(0.00561842 0 -6.70011e-05)
(0.00445078 0 -3.70714e-05)
(0.00347088 0 -1.73847e-05)
(0.00266064 0 -5.22038e-06)
(0.00199863 0 1.59627e-06)
(0.00146044 0 4.73786e-06)
(0.00102037 0 5.42589e-06)
(0.000651035 0 4.51429e-06)
(0.00032199 0 2.57526e-06)
(0 0 0)
(0.0358721 0 -0.009722)
(0.0367829 0 -0.00952532)
(0.0383223 0 -0.00912996)
(0.0394325 0 -0.00844097)
(0.0399639 0 -0.00759599)
(0.039873 0 -0.00670167)
(0.0391511 0 -0.00581607)
(0.0378429 0 -0.00497251)
(0.0360282 0 -0.0041911)
(0.0338056 0 -0.00348302)
(0.0312808 0 -0.00285339)
(0.0285577 0 -0.0023031)
(0.0257328 0 -0.00183006)
(0.0228922 0 -0.0014301)
(0.0201092 0 -0.00109758)
(0.0174437 0 -0.000825892)
(0.0149424 0 -0.000607916)
(0.0126387 0 -0.000436398)
(0.0105542 0 -0.000304236)
(0.00869935 0 -0.000204693)
(0.00707569 0 -0.000131624)
(0.00567679 0 -7.95545e-05)