/*--------------------------------*- C++ -*----------------------------------*\
| =========                 |                                                 |
| \\      /  F ield         | OpenFOAM: The Open Source CFD Toolbox           |
|  \\    /   O peration     | Version:  2012                                  |
|   \\  /    A nd           | Website:  www.openfoam.com                      |
|    \\/     M anipulation  |                                                 |
\*---------------------------------------------------------------------------*/
FoamFile
{
    version     2.0;
    format      ascii;
    class       volVectorField;
    location    "0.5";
    object      U;
}
// * * * * * * * * * * * * * * * * * * * * * * * * * * * * * * * * * * * * * //

dimensions      [0 1 -1 0 0 0 0];


internalField   nonuniform List<vector> 
2790
(
(9.94452 8.6651e-22 0.0195453)
(9.88241 8.7978e-22 0.0275767)
(9.79196 0 0.0329328)
(9.67961 -3.69964e-21 0.0384269)
(9.55107 -2.90255e-21 0.0441302)
(9.40728 1.56306e-20 0.0499728)
(9.24742 -1.00421e-20 0.0560661)
(9.07061 0 0.0625533)
(8.87602 0 0.0695511)
(8.66275 2.27039e-21 0.0771586)
(8.4297 0 0.08547)
(8.1756 2.51607e-20 0.0945778)
(7.89911 -1.54933e-20 0.10457)
(7.59887 -1.12139e-20 0.115524)
(7.27355 1.75049e-20 0.127508)
(6.92199 6.29051e-21 0.140563)
(6.54326 0 0.154692)
(6.13692 -2.83234e-20 0.169842)
(5.70309 0 0.185891)
(5.2427 -6.73343e-20 0.202627)
(4.7577 1.39709e-19 0.219708)
(4.25119 1.53234e-19 0.236644)
(3.72754 0 0.25279)
(3.1925 -1.81474e-19 0.267339)
(2.65302 0 0.27933)
(2.11718 -4.32663e-19 0.287668)
(1.59407 0 0.291184)
(1.09403 0 0.28858)
(0.610746 -3.88501e-18 0.281108)
(0.270648 4.76837e-18 0.254256)
(9.99914 -2.59139e-21 0.0376778)
(9.98836 8.74291e-22 0.0563248)
(9.95284 -3.56883e-21 0.0700511)
(9.89482 1.09232e-20 0.0844575)
(9.81859 -8.53286e-22 0.0997688)
(9.72516 2.0084e-21 0.115787)
(9.6139 -5.86369e-21 0.132728)
(9.48397 0 0.150912)
(9.33454 -4.21893e-21 0.170614)
(9.16467 -2.19554e-21 0.192076)
(8.97322 0 0.215528)
(8.75885 -4.64767e-21 0.2412)
(8.5201 -3.64109e-21 0.269304)
(8.2554 -1.29721e-21 0.300029)
(7.96318 2.27813e-20 0.333517)
(7.64193 -3.45285e-20 0.369838)
(7.29031 1.00518e-19 0.408948)
(6.90731 1.36142e-19 0.450646)
(6.49233 -6.77619e-19 0.494539)
(6.04545 -7.30703e-20 0.539988)
(5.5676 3.81104e-19 0.586028)
(5.06057 7.09409e-19 0.631337)
(4.52723 2.69188e-20 0.674223)
(3.9715 -1.45034e-18 0.712659)
(3.39802 0 0.744328)
(2.81185 3.85121e-19 0.76675)
(2.21763 0 0.777614)
(1.61928 0 0.775289)
(0.999604 4.97975e-19 0.763423)
(0.475053 0 0.725431)
(9.9962 0 0.0380952)
(9.98228 -3.48288e-21 0.0651482)
(9.94841 3.54083e-21 0.0882095)
(9.8946 3.61327e-21 0.112126)
(9.82376 0 0.137524)
(9.73702 -1.90259e-21 0.164317)
(9.63402 -9.85754e-22 0.192794)
(9.51409 5.03158e-21 0.223407)
(9.37653 -4.15517e-21 0.256593)
(9.22053 0 0.292756)
(9.04505 0 0.332298)
(8.84888 3.67669e-23 0.375627)
(8.63063 -9.80448e-21 0.423137)
(8.38872 8.30321e-20 0.475193)
(8.12152 -6.34004e-20 0.532099)
(7.82733 -2.26791e-20 0.594056)
(7.50454 -3.87285e-19 0.661107)
(7.15162 8.08452e-19 0.733077)
(6.76721 -4.23009e-19 0.809495)
(6.35049 8.11038e-19 0.889514)
(5.90109 -8.39099e-19 0.971815)
(5.41926 2.0054e-21 1.05454)
(4.90595 0 1.13525)
(4.36276 3.33595e-18 1.21103)
(3.7918 -1.93146e-18 1.27854)
(3.19527 0 1.33436)
(2.5745 -5.40229e-18 1.37558)
(1.93113 6.64024e-18 1.40079)
(1.24617 -1.81571e-18 1.41622)
(0.616443 1.00021e-18 1.41036)
(9.99461 0 0.0424097)
(9.97839 6.0785e-21 0.079202)
(9.94417 8.71317e-22 0.112673)
(9.89135 -3.60405e-21 0.146304)
(9.82194 0 0.181299)
(9.73698 0 0.217977)
(9.63633 0 0.256789)
(9.51946 -4.00531e-21 0.298334)
(9.38581 8.27465e-21 0.343222)
(9.23472 0 0.392038)
(9.06535 0 0.445366)
(8.87668 9.24306e-21 0.503809)
(8.66753 -7.78036e-20 0.567974)
(8.43654 -1.96214e-21 0.638441)
(8.18228 -8.72131e-20 0.715736)
(7.9032 1.30084e-19 0.800274)
(7.59772 -2.83222e-19 0.892315)
(7.26419 6.83549e-19 0.991875)
(6.90101 3.26179e-19 1.09861)
(6.50682 -1.41923e-18 1.21174)
(6.08038 1.14509e-18 1.32989)
(5.62076 4.928e-19 1.45105)
(5.12732 0 1.57246)
(4.59971 -1.12683e-18 1.69067)
(4.03791 -6.08775e-19 1.80174)
(3.44194 -5.26332e-18 1.90155)
(2.81124 4.90177e-18 1.98638)
(2.14739 0 2.05375)
(1.43585 8.35403e-19 2.10799)
(0.738202 -1.46809e-17 2.14183)
(9.99385 0 0.0481783)
(9.97635 -6.91851e-21 0.0931235)
(9.94182 -3.07785e-21 0.135508)
(9.88984 -8.95324e-22 0.177864)
(9.82186 4.55095e-22 0.221722)
(9.7387 0 0.267756)
(9.64028 -1.9376e-21 0.316544)
(9.52615 9.86086e-21 0.368776)
(9.39581 -8.23995e-21 0.425169)
(9.24867 -4.90584e-23 0.486437)
(9.08395 1.74181e-20 0.553296)
(8.90075 1.80672e-20 0.626491)
(8.69804 -7.63048e-20 0.706787)
(8.47463 1.16745e-19 0.794941)
(8.22923 1.6602e-19 0.891665)
(7.96043 1.7838e-19 0.997587)
(7.66676 -4.44802e-19 1.1132)
(7.34661 1.06331e-21 1.23877)
(6.99833 2.96585e-19 1.37421)
(6.62025 -1.69617e-18 1.51897)
(6.21063 -2.65862e-19 1.67189)
(5.76774 1.61359e-18 1.83109)
(5.28983 4.9264e-19 1.99383)
(4.77515 5.32764e-19 2.15648)
(4.22206 0 2.31463)
(3.62908 -4.88416e-18 2.46336)
(2.9949 1.56721e-17 2.59766)
(2.32163 -1.05034e-17 2.71247)
(1.60355 0 2.80597)
(0.855556 -8.42878e-19 2.87459)
(9.99351 6.79138e-21 0.0546103)
(9.97543 3.44907e-21 0.107144)
(9.94096 6.96979e-21 0.157992)
(9.89004 0 0.209024)
(9.8238 0 0.261769)
(9.74284 7.40812e-21 0.317101)
(9.64709 0 0.375719)
(9.53615 -1.56536e-20 0.438388)
(9.40956 8.03535e-21 0.505928)
(9.26679 8.34388e-21 0.57918)
(9.10709 -5.20057e-20 0.658999)
(8.92963 7.16686e-20 0.746267)
(8.73344 -1.29457e-19 0.841903)
(8.51743 -1.17996e-19 0.946837)
(8.28039 3.59388e-19 1.06197)
(8.02099 1.7317e-19 1.18815)
(7.73777 -3.43542e-19 1.32613)
(7.42916 9.14818e-20 1.47645)
(7.09343 -1.91766e-19 1.63934)
(6.72868 -3.15627e-21 1.81463)
(6.33281 -2.08296e-19 2.00154)
(5.9035 -2.19379e-19 2.19851)
(5.43817 -8.83434e-21 2.40306)
(4.93402 -4.004e-18 2.61157)
(4.38818 4.17461e-18 2.81925)
(3.79805 0 3.02007)
(3.16182 1.02526e-17 3.20694)
(2.4816 -1.156e-17 3.37128)
(1.76337 0 3.50213)
(0.972117 -1.2002e-17 3.59555)
(9.9934 -6.89349e-21 0.0613172)
(9.97522 1.06888e-22 0.121158)
(9.94121 -6.95695e-21 0.18002)
(9.89158 0 0.23938)
(9.82736 0 0.300675)
(9.74899 -1.47135e-20 0.36492)
(9.65636 -3.79508e-21 0.432946)
(9.54914 1.15996e-20 0.505619)
(9.42691 -7.97963e-21 0.583856)
(9.28915 0 0.668618)
(9.1352 -3.4144e-20 0.760889)
(8.96428 5.21401e-20 0.861681)
(8.77543 3.69579e-20 0.972054)
(8.56762 -1.1136e-19 1.09309)
(8.3397 -3.90915e-20 1.22588)
(8.09034 3.27504e-19 1.3715)
(7.8181 -9.29285e-19 1.53095)
(7.52134 -1.66533e-20 1.70509)
(7.19821 1.4613e-18 1.89454)
(6.84661 -2.49097e-18 2.09956)
(6.46407 1.78039e-18 2.31991)
(6.04774 2.11307e-19 2.55454)
(5.5943 -4.44143e-19 2.8014)
(5.10001 -4.56606e-19 3.05709)
(4.56083 0 3.31653)
(3.97307 -5.09844e-19 3.57253)
(3.33389 -5.57584e-19 3.81505)
(2.64414 3.0715e-19 4.03151)
(1.92214 1.03782e-17 4.2008)
(1.08817 -1.12598e-17 4.31114)
(9.99343 0 0.0680741)
(9.97549 0 0.134995)
(9.94226 0 0.201457)
(9.89421 4.39561e-22 0.26876)
(9.83229 7.56441e-21 0.338258)
(9.75686 6.40023e-21 0.411057)
(9.6678 0 0.488108)
(9.56482 7.69414e-21 0.570371)
(9.44754 -7.78169e-21 0.658855)
(9.31547 0 0.754622)
(9.16804 -5.00242e-20 0.858774)
(9.0045 3.39109e-20 0.97246)
(8.82393 1.77611e-20 1.09687)
(8.6254 4.64678e-22 1.23325)
(8.40772 -3.7491e-20 1.38288)
(8.16962 -2.77034e-19 1.54705)
(7.90964 2.39063e-19 1.72705)
(7.62606 8.33015e-20 1.92409)
(7.31691 7.06589e-19 2.13922)
(6.97984 -7.18494e-19 2.37324)
(6.61204 0 2.62654)
(6.2101 0 2.89876)
(5.76993 0 3.18852)
(5.28675 4.35637e-19 3.49289)
(4.75522 -3.63036e-18 3.80675)
(4.16998 4.24978e-18 4.12186)
(3.52657 0 4.42507)
(2.82264 2.71474e-19 4.6995)
(2.08668 8.95394e-18 4.91393)
(1.20506 -1.21034e-20 5.0412)
(9.99356 0 0.0747398)
(9.9761 6.73302e-21 0.148502)
(9.94395 -6.81714e-21 0.222182)
(9.89772 7.35644e-21 0.297032)
(9.83839 -7.52939e-21 0.374352)
(9.76624 -7.17883e-21 0.45531)
(9.68117 -3.70475e-21 0.540952)
(9.58292 -3.75727e-21 0.632329)
(9.47115 -1.55624e-20 0.73054)
(9.34543 1.57252e-20 0.836736)
(9.20524 1.63657e-20 0.952129)
(9.04989 0 1.07799)
(8.87858 -6.96576e-20 1.21566)
(8.69039 1.06185e-19 1.36653)
(8.4842 3.69226e-20 1.53207)
(8.25877 0 1.7138)
(8.01263 0 1.91332)
(7.74404 5.70573e-19 2.1322)
(7.45093 -1.33377e-18 2.37198)
(7.13071 -7.09781e-19 2.63409)
(6.78028 1.48884e-19 2.91969)
(6.39567 2.95231e-18 3.2293)
(5.97197 -1.70505e-18 3.56248)
(5.50324 0 3.91722)
(4.98236 3.32178e-18 4.28885)
(4.40144 -3.32479e-18 4.66849)
(3.75368 0 5.04067)
(3.03119 0 5.38409)
(2.26822 6.24843e-20 5.65758)
(1.32796 -6.79489e-20 5.81293)
(9.99374 5.19425e-23 0.0812183)
(9.97696 -6.77775e-21 0.161551)
(9.94613 1.35642e-20 0.242076)
(9.90198 -6.90412e-21 0.324062)
(9.8455 -6.96774e-21 0.40879)
(9.77696 5.65173e-23 0.497469)
(9.69626 0 0.591227)
(9.60317 7.45879e-21 0.691197)
(9.49743 0 0.798557)
(9.37867 0 0.914546)
(9.24641 0 1.04048)
(9.10005 0 1.17773)
(8.9389 -6.78867e-20 1.32777)
(8.76209 6.85035e-20 1.49215)
(8.56862 0 1.67253)
(8.35731 -2.94947e-19 1.87068)
(8.1267 -5.64766e-21 2.08846)
(7.87516 9.29453e-19 2.32788)
(7.6005 -6.29273e-19 2.59098)
(7.30001 1.23609e-18 2.8799)
(6.97044 -1.41805e-18 3.19671)
(6.60732 -8.46267e-20 3.54304)
(6.20496 3.03105e-18 3.9198)
(5.7561 -5.82639e-18 4.32649)
(5.2514 3.0806e-18 4.7597)
(4.67971 -9.93365e-20 5.21108)
(4.03037 -3.05933e-21 5.66429)
(3.28717 0 6.09412)
(2.48433 -5.84038e-20 6.44974)
(1.46703 -5.48223e-20 6.65718)
(9.99398 0 0.0874405)
(9.97801 6.83337e-21 0.174038)
(9.94872 -7.37875e-21 0.261027)
(9.90687 -4.301e-22 0.349725)
(9.85349 7.80897e-21 0.441418)
(9.78885 7.0686e-21 0.537349)
(9.71286 0 0.638711)
(9.62535 -7.363e-21 0.746709)
(9.52611 7.42553e-21 0.862594)
(9.41484 1.51835e-20 0.987685)
(9.29114 -3.15055e-20 1.12338)
(9.15452 1.58751e-20 1.27115)
(9.00437 6.60975e-20 1.43259)
(8.83994 -2.02027e-19 1.6094)
(8.66036 1.36412e-19 1.8034)
(8.46455 0 2.01659)
(8.25119 1.7816e-20 2.25115)
(8.01879 -3.64141e-20 2.50948)
(7.76513 0 2.79416)
(7.4876 7.82094e-20 3.10806)
(7.18297 -7.99302e-20 3.45431)
(6.84645 8.16165e-20 3.83588)
(6.47175 -3.98839e-20 4.2555)
(6.05033 4.04657e-20 4.71489)
(5.57062 -2.79398e-18 5.21317)
(5.01776 2.76311e-18 5.74471)
(4.3748 -3.97978e-20 6.29472)
(3.61384 0 6.8362)
(2.76101 9.28154e-20 7.3097)
(1.63891 1.0455e-20 7.61067)
(9.99425 0 0.0933543)
(9.97921 -5.14046e-23 0.185877)
(9.95163 0 0.278935)
(9.91229 0 0.373907)
(9.86223 0 0.472098)
(9.80175 -1.74626e-21 0.574782)
(9.73078 5.24035e-21 0.683203)
(9.64921 1.07462e-20 0.798628)
(9.55689 7.39137e-21 0.922372)
(9.45359 -4.50571e-20 1.05582)
(9.33902 2.27906e-20 1.20044)
(9.21279 1.57379e-20 1.35779)
(9.0744 -6.43024e-20 1.52957)
(8.92325 5.66206e-20 1.71759)
(8.75864 0 1.92384)
(8.57963 8.38577e-21 2.15052)
(8.38516 2.61164e-19 2.40009)
(8.17387 2.21249e-20 2.67533)
(7.94379 -8.60637e-19 2.97935)
(7.69262 1.16182e-18 3.31577)
(7.41729 -5.85562e-19 3.68878)
(7.11308 1.18233e-18 4.10294)
(6.77354 -2.35234e-18 4.56316)
(6.38943 1.16446e-18 5.07416)
(5.94764 3.64441e-20 5.63936)
(5.42924 0 6.2587)
(4.80918 2.38977e-18 6.92351)
(4.04368 -2.51799e-18 7.61105)
(3.13841 -8.57953e-20 8.25784)
(1.87173 2.86329e-18 8.72597)
(9.99455 0 0.0989193)
(9.98053 -6.15142e-21 0.196998)
(9.9548 -4.11673e-22 0.295713)
(9.91815 0 0.396507)
(9.87162 0 0.500708)
(9.81552 -6.82651e-21 0.609618)
(9.74985 -3.57755e-21 0.724525)
(9.67452 -1.06485e-20 0.846744)
(9.58948 -7.25697e-21 0.97764)
(9.49457 7.40424e-21 1.11865)
(9.38962 -7.53667e-21 1.2713)
(9.27433 7.55786e-21 1.43723)
(9.14836 3.12564e-20 1.61819)
(9.01129 -2.34229e-20 1.81611)
(8.86257 -6.47173e-20 2.0331)
(8.70154 5.86808e-20 2.27154)
(8.52737 2.55462e-22 2.53409)
(8.33901 -2.52896e-19 2.82387)
(8.13495 2.70113e-19 3.14447)
(7.91336 -5.48485e-19 3.50018)
(7.67157 5.64678e-19 3.89623)
(7.40558 8.78488e-21 4.33877)
(7.10957 -2.19381e-21 4.83509)
(6.77478 -1.07538e-18 5.39361)
(6.3878 -1.43726e-20 6.02359)
(5.92698 -9.99765e-19 6.73396)
(5.35989 2.1526e-18 7.52959)
(4.6233 0 8.40509)
(3.68484 1.91438e-18 9.31162)
(2.21974 -4.23475e-18 10.094)
(9.99487 -1.28035e-20 0.104104)
(9.98194 6.44266e-21 0.207343)
(9.95818 8.17892e-22 0.311287)
(9.92437 -7.3899e-21 0.417435)
(9.88153 6.64569e-21 0.527142)
(9.83001 1.18388e-20 0.641735)
(9.76986 -6.9209e-21 0.762533)
(9.70105 8.75066e-21 0.890888)
(9.62358 -3.56078e-21 1.0282)
(9.53742 1.79759e-20 1.17595)
(9.44247 7.25676e-21 1.33571)
(9.33859 -3.81245e-21 1.50914)
(9.22559 -3.03696e-20 1.69808)
(9.10322 3.07073e-20 1.9045)
(8.97118 0 2.13061)
(8.82907 -6.51581e-20 2.37888)
(8.6764 5.51313e-20 2.65216)
(8.51253 0 2.9538)
(8.33654 2.57528e-19 3.28772)
(8.14725 -5.13958e-19 3.65876)
(7.94286 2.397e-19 4.07298)
(7.72067 0 4.53791)
(7.47654 -4.93626e-19 5.06306)
(7.20376 4.89516e-19 5.66056)
(6.89121 0 6.34623)
(6.51916 5.22856e-20 7.1407)
(6.05408 0 8.07038)
(5.41839 0 9.16953)
(4.52754 5.90662e-20 10.4629)
(2.8029 0 11.9114)
(9.99521 1.27984e-20 0.108885)
(9.98343 -7.23919e-21 0.216869)
(9.96174 8.0649e-22 0.325595)
(9.93087 6.55493e-21 0.436612)
(9.89186 -6.63009e-21 0.5513)
(9.84509 -8.38892e-21 0.671004)
(9.79064 3.38304e-21 0.797064)
(9.72855 -1.70743e-21 0.93086)
(9.6589 0 1.07382)
(9.58174 -6.21873e-21 1.22743)
(9.49711 -8.09835e-21 1.3933)
(9.405 -3.7072e-21 1.57312)
(9.30538 3.65207e-21 1.76874)
(9.19821 -2.34526e-22 1.98217)
(9.08343 0 2.21566)
(8.96096 0 2.47172)
(8.83068 2.26861e-20 2.75328)
(8.69245 0 3.06379)
(8.54603 2.98531e-20 3.40737)
(8.3911 -2.95838e-20 3.78916)
(8.2271 1.18663e-19 4.2157)
(8.05314 -1.17533e-19 4.69536)
(7.86766 1.11545e-19 5.23913)
(7.66788 -3.21531e-19 5.86194)
(7.44875 3.07461e-19 6.58488)
(7.20041 -5.04273e-19 7.4391)
(6.9052 1.72339e-19 8.4735)
(6.50821 -5.5211e-20 9.77519)
(5.92974 2.34022e-19 11.5312)
(3.96902 -2.84832e-19 14.6528)
(-0.188274 2.16698e-19 0.236885)
(-0.665686 -1.56861e-18 0.350541)
(-1.38808 2.81443e-18 0.418658)
(-2.23631 -1.27449e-18 0.461067)
(-3.17373 0 0.481152)
(-4.16403 0 0.483159)
(-5.177 0 0.470568)
(-6.18641 2.77042e-19 0.445877)
(-7.16794 0 0.410764)
(-8.09753 -1.37812e-19 0.366355)
(-8.95017 -1.38313e-19 0.313471)
(-9.69947 -1.3876e-19 0.252815)
(-10.3178 0 0.185185)
(-10.777 0 0.111429)
(-11.0495 0 0.0324164)
(-11.1104 0 -0.0510683)
(-10.9403 7.66843e-20 -0.138437)
(-10.5301 -1.48509e-20 -0.224732)
(-9.88428 0 -0.304412)
(-9.02077 -3.25246e-20 -0.373167)
(-7.96884 1.18245e-20 -0.427957)
(-6.76617 -7.22898e-21 -0.46697)
(-5.45581 7.65142e-21 -0.489408)
(-4.08241 0 -0.495251)
(-2.68576 3.34845e-21 -0.485412)
(-1.27417 -3.11598e-21 -0.464203)
(0.14894 0 -0.427277)
(1.41993 0 -0.388001)
(2.67587 -2.01951e-23 -0.360155)
(4.24166 0 -0.378599)
(-0.266638 -2.01444e-19 0.643045)
(-0.834832 3.53805e-19 0.851124)
(-1.6106 0 0.995372)
(-2.47595 1.79012e-18 1.1042)
(-3.41234 9.6296e-20 1.17705)
(-4.39186 1.13813e-19 1.2155)
(-5.38917 -2.01291e-18 1.22132)
(-6.38044 8.07464e-19 1.19577)
(-7.34232 -2.3261e-18 1.13957)
(-8.25086 1.13972e-18 1.05312)
(-9.08077 1.31594e-19 0.936713)
(-9.80512 1.33344e-19 0.791045)
(-10.3955 -2.73659e-19 0.617632)
(-10.8232 -1.36174e-19 0.419287)
(-11.0598 1.35805e-21 0.200321)
(-11.08 1.32866e-19 -0.033457)
(-10.8705 -3.14989e-20 -0.273143)
(-10.4272 -2.27358e-20 -0.503631)
(-9.75509 4.62164e-20 -0.712021)
(-8.87217 4.44911e-21 -0.888472)
(-7.80714 -4.6464e-21 -1.02659)
(-6.59666 0 -1.12341)
(-5.28238 5.44803e-21 -1.17907)
(-3.90726 -5.77642e-21 -1.19638)
(-2.50964 -1.31855e-21 -1.18088)
(-1.0811 0 -1.14161)
(0.319731 0 -1.07072)
(1.59556 0 -0.992213)
(2.84151 1.87368e-23 -0.938912)
(4.37815 0 -0.965556)
(-0.254068 1.17574e-17 1.23221)
(-0.853653 -1.06494e-17 1.51302)
(-1.65641 0 1.71491)
(-2.51575 4.96612e-18 1.87007)
(-3.42851 1.88707e-19 1.97317)
(-4.37359 -3.9024e-18 2.02343)
(-5.33102 0 2.02165)
(-6.28062 0 1.96873)
(-7.20157 -1.29613e-18 1.86527)
(-8.07157 1.50742e-18 1.71163)
(-8.86639 0 1.5083)
(-9.55952 5.45716e-19 1.2565)
(-10.1223 2.87068e-19 0.959028)
(-10.5252 -8.27281e-19 0.62122)
(-10.7388 5.64159e-19 0.251765)
(-10.737 2.64708e-19 -0.137144)
(-10.5091 -2.57505e-19 -0.53104)
(-10.0506 0 -0.907857)
(-9.36867 -1.02216e-19 -1.24654)
(-8.48303 -4.52548e-20 -1.53081)
(-7.42317 1.86272e-20 -1.75011)
(-6.22573 0 -1.89979)
(-4.93176 -3.68232e-21 -1.98077)
(-3.58348 -2.83034e-21 -1.99941)
(-2.21851 8.36109e-22 -1.96743)
(-0.816707 0 -1.89213)
(0.507954 7.21684e-23 -1.77525)
(1.75687 0 -1.65334)
(2.9518 1.40495e-23 -1.56707)
(4.42792 3.65769e-24 -1.56997)
(-0.185878 -1.08574e-17 1.90083)
(-0.779513 3.06009e-19 2.2247)
(-1.59162 0 2.45771)
(-2.42908 -4.22577e-18 2.63787)
(-3.30548 3.88253e-18 2.75624)
(-4.20568 9.85331e-19 2.80973)
(-5.11522 1.99927e-18 2.79757)
(-6.01792 -1.88915e-18 2.71941)
(-6.89577 -1.56843e-18 2.57475)
(-7.7282 1.99515e-18 2.36289)
(-8.49161 0 2.08332)
(-9.15902 5.54884e-19 1.73651)
(-9.70034 0 1.32514)
(-10.0835 -5.7796e-19 0.855469)
(-10.2764 6.77922e-21 0.339028)
(-10.2509 2.87096e-19 -0.206846)
(-10.0021 1.32956e-19 -0.757746)
(-9.52722 0 -1.28116)
(-8.83603 9.96086e-20 -1.74888)
(-7.95037 3.70217e-20 -2.13929)
(-6.90048 -4.18651e-20 -2.43856)
(-5.72274 1.60606e-20 -2.64083)
(-4.45744 1.8941e-20 -2.74806)
(-3.14567 6.98578e-21 -2.77002)
(-1.81977 -2.14708e-21 -2.72237)
(-0.467681 -1.03034e-21 -2.60728)
(0.778937 3.34524e-22 -2.4439)
(1.98621 8.67091e-23 -2.27966)
(3.1196 -1.6891e-23 -2.15658)
(4.51663 5.87665e-23 -2.12172)
(-0.0812362 0 2.6159)
(-0.641355 -9.61287e-18 2.95602)
(-1.4445 -2.56419e-19 3.19943)
(-2.24305 3.79472e-18 3.38883)
(-3.07035 4.80196e-18 3.51179)
(-3.91578 -4.91697e-18 3.56254)
(-4.7697 3.7413e-18 3.53764)
(-5.61946 -9.99014e-19 3.43441)
(-6.44947 0 3.25007)
(-7.24049 -1.04344e-18 2.98173)
(-7.96922 -1.11208e-18 2.62695)
(-8.60789 1.11962e-18 2.18486)
(-9.12462 0 1.65787)
(-9.48456 9.22502e-19 1.05409)
(-9.65269 3.17313e-19 0.389985)
(-9.59926 -3.15216e-19 -0.309344)
(-9.32858 -4.1541e-19 -1.01134)
(-8.83859 0 -1.67368)
(-8.14234 1.00447e-19 -2.26156)
(-7.26362 -1.42174e-19 -2.74895)
(-6.2329 8.27131e-20 -3.11961)
(-5.08572 -1.5601e-20 -3.36712)
(-3.86115 -1.79691e-20 -3.49487)
(-2.59869 1.03439e-21 -3.51594)
(-1.32144 -3.78448e-21 -3.44692)
(-0.0430705 1.1747e-21 -3.28801)
(1.12864 -2.76819e-22 -3.08007)
(2.27974 1.9536e-22 -2.87602)
(3.34421 -1.75806e-23 -2.71408)
(4.64796 -4.94053e-23 -2.63343)
(0.0469484 9.81439e-18 3.34807)
(-0.456003 -8.81743e-18 3.68308)
(-1.22943 0 3.92265)
(-1.96993 0 4.11088)
(-2.73345 -9.60153e-19 4.23167)
(-3.51177 -3.0187e-18 4.27636)
(-4.29928 6.85514e-18 4.23824)
(-5.08637 -2.89049e-18 4.11178)
(-5.8596 1.05637e-18 3.89133)
(-6.6011 5.28734e-19 3.57117)
(-7.28804 0 3.14624)
(-7.89213 -5.80484e-19 2.6135)
(-8.37955 1.89868e-18 1.97441)
(-8.71198 -2.94046e-18 1.23825)
(-8.85042 7.01281e-19 0.426625)
(-8.76399 0 -0.427011)
(-8.47137 0 -1.27692)
(-7.96982 0 -2.07167)
(-7.27615 1.15336e-19 -2.77154)
(-6.41513 0 -3.34751)
(-5.41647 -8.08132e-20 -3.782)
(-4.31413 3.40429e-20 -4.06872)
(-3.14485 0 -4.21253)
(-1.94468 4.3841e-21 -4.22869)
(-0.725724 -4.83287e-21 -4.12975)
(0.444902 -5.72899e-22 -3.92917)
(1.55148 1.4399e-22 -3.68002)
(2.63321 -2.57473e-22 -3.43661)
(3.6226 4.70384e-23 -3.23332)
(4.82166 -7.1346e-23 -3.10142)
(0.187404 1.46943e-19 4.06214)
(-0.23643 0 4.37692)
(-0.955923 7.97058e-18 4.6039)
(-1.6171 -7.9194e-18 4.7854)
(-2.30006 0 4.90086)
(-2.99618 -5.08783e-18 4.93873)
(-3.70354 9.09373e-18 4.88885)
(-4.41504 -4.01743e-18 4.74242)
(-5.11934 -1.05895e-18 4.4904)
(-5.80012 5.77381e-19 4.12363)
(-6.43534 6.09044e-19 3.63366)
(-6.99636 1.93606e-18 3.01444)
(-7.44717 -1.97008e-18 2.26558)
(-7.74518 1.43051e-18 1.39744)
(-7.84763 -3.72427e-19 0.438139)
(-7.72625 1.65717e-20 -0.565469)
(-7.41367 1.91591e-20 -1.55547)
(-6.90796 2.87264e-19 -2.47183)
(-6.22873 -1.16404e-19 -3.27245)
(-5.40017 -4.66943e-20 -3.92683)
(-4.44974 4.41275e-20 -4.41659)
(-3.40929 -8.46811e-20 -4.73648)
(-2.31175 1.57703e-20 -4.89203)
(-1.18644 -1.57419e-20 -4.89777)
(-0.0541737 4.3475e-21 -4.76265)
(1.00623 9.65765e-22 -4.5254)
(2.04249 -6.84071e-22 -4.2404)
(3.04341 -6.99964e-23 -3.95726)
(3.95165 0 -3.71069)
(5.03695 6.84153e-23 -3.5246)
(0.330512 -1.49325e-19 4.71688)
(0.0068899 -8.90022e-18 5.00502)
(-0.631925 8.85102e-18 5.21622)
(-1.19105 0 5.38999)
(-1.7752 -4.22771e-18 5.50034)
(-2.37204 4.02111e-18 5.53303)
(-2.98318 -4.37934e-18 5.47484)
(-3.60365 4.22206e-18 5.3133)
(-4.22424 0 5.03574)
(-4.83049 -2.46391e-18 4.62907)
(-5.40178 1.19478e-18 4.08076)
(-5.90976 7.27833e-19 3.38087)
(-6.31623 -6.85485e-19 2.52623)
(-6.57287 3.54831e-20 1.52789)
(-6.63098 -8.53392e-19 0.42212)
(-6.46988 -3.58597e-19 -0.724074)
(-6.14437 7.04772e-19 -1.84253)
(-5.64656 -3.04468e-19 -2.86596)
(-4.99795 -1.19339e-19 -3.75386)
(-4.22007 1.15585e-19 -4.47587)
(-3.33654 4.87275e-20 -5.0125)
(-2.37636 7.61343e-20 -5.36004)
(-1.36626 0 -5.5226)
(-0.327613 1.0728e-20 -5.50869)
(0.672591 3.72416e-21 -5.34267)
(1.64707 0 -5.07365)
(2.59708 8.50336e-23 -4.75634)
(3.50726 -1.63462e-22 -4.43356)
(4.32802 1.4467e-22 -4.14282)
(5.2924 -2.7437e-23 -3.90178)
(0.46991 1.89491e-17 5.2701)
(0.266922 -9.06254e-18 5.53509)
(-0.265098 0 5.73247)
(-0.699651 -4.93687e-18 5.90117)
(-1.16648 -2.30563e-19 6.00938)
(-1.64614 5.33585e-18 6.04061)
(-2.14354 4.63625e-18 5.97916)
(-2.65557 -5.7228e-18 5.80892)
(-3.17521 3.59668e-18 5.51338)
(-3.69028 -6.35656e-19 5.07526)
(-4.18238 -7.47926e-19 4.47739)
(-4.62461 2.22139e-18 3.70508)
(-4.97725 -2.38977e-18 2.751)
(-5.18511 -8.76765e-19 1.6272)
(-5.19035 -1.0138e-18 0.381717)
(-4.98742 0 -0.901489)
(-4.66102 -3.65365e-19 -2.131)
(-4.18831 6.54586e-19 -3.24311)
(-3.5903 0 -4.20307)
(-2.8838 -5.3138e-20 -4.98173)
(-2.08776 5.50324e-21 -5.55827)
(-1.22416 0 -5.92847)
(-0.313716 -1.55079e-20 -6.09002)
(0.589868 6.59763e-21 -6.05503)
(1.47941 4.5774e-21 -5.86565)
(2.35886 0 -5.57137)
(3.21032 2.93774e-22 -5.22255)
(4.02056 -4.28827e-22 -4.86113)
(4.74762 1.81523e-23 -4.52672)
(5.58558 8.88152e-24 -4.23206)
(0.602767 0 5.6873)
(0.539708 5.65797e-19 5.9384)
(0.135967 -4.57142e-18 6.12775)
(-0.153594 4.95059e-18 6.29656)
(-0.486037 4.6666e-18 6.40734)
(-0.831183 -5.63987e-18 6.44216)
(-1.19732 -4.96107e-18 6.38317)
(-1.58269 3.59754e-18 6.21156)
(-1.98258 -2.63905e-18 5.90671)
(-2.3874 1.42874e-18 5.44681)
(-2.78225 0 4.80934)
(-3.14406 8.16482e-19 3.97373)
(-3.43155 9.32116e-19 2.9268)
(-3.57765 -9.8639e-19 1.68429)
(-3.51235 2.31217e-18 0.313326)
(-3.28449 -1.00832e-18 -1.09052)
(-2.97409 -4.28568e-19 -2.40734)
(-2.54877 5.30871e-19 -3.58863)
(-2.02339 -1.75833e-20 -4.60702)
(-1.40829 -1.32816e-19 -5.43282)
(-0.72129 0 -6.04197)
(0.0370437 0 -6.4299)
(0.800811 2.77336e-20 -6.58168)
(1.58044 -2.31127e-20 -6.53563)
(2.36293 -3.2156e-21 -6.32967)
(3.13325 3.1327e-21 -6.01279)
(3.87554 5.1728e-23 -5.63382)
(4.57748 0 -5.23592)
(5.20507 2.08437e-22 -4.85984)
(5.91283 0 -4.51481)
(0.726398 3.73375e-20 5.94565)
(0.821399 4.72356e-18 6.19183)
(0.560908 -5.19763e-18 6.38354)
(0.432637 0 6.55705)
(0.24786 1.21428e-18 6.67564)
(0.0526393 0 6.72021)
(-0.166654 -1.37951e-18 6.67)
(-0.408442 -1.99206e-19 6.50412)
(-0.670141 5.67365e-18 6.19855)
(-0.944954 -7.53737e-19 5.72676)
(-1.22291 8.54379e-19 5.06071)
(-1.49019 0 4.17565)
(-1.70154 3.17506e-18 3.05734)
(-1.7622 -2.39215e-18 1.71582)
(-1.58636 1.40023e-18 0.224709)
(-1.37865 5.62025e-19 -1.27216)
(-1.11247 -4.77602e-19 -2.65234)
(-0.760198 2.09243e-19 -3.88443)
(-0.329108 -7.01132e-21 -4.95124)
(0.181894 -1.91689e-19 -5.82416)
(0.740925 5.46481e-20 -6.45053)
(1.3483 0 -6.842)
(1.9886 0 -6.99973)
(2.64808 0 -6.94894)
(3.31005 3.85409e-21 -6.7298)
(3.9598 0 -6.39198)
(4.58364 -1.55699e-22 -5.98541)
(5.17022 3.221e-22 -5.55445)
(5.6936 -2.86037e-23 -5.14018)
(6.26917 0 -4.74973)
(0.835773 -4.85483e-18 6.02971)
(1.10749 4.5606e-18 6.28614)
(0.998674 -4.80357e-18 6.4878)
(1.0384 -6.19422e-19 6.66896)
(1.01083 -1.25612e-18 6.79997)
(0.976685 2.69636e-18 6.86068)
(0.915615 -6.81483e-18 6.82746)
(0.829905 -2.12665e-19 6.67708)
(0.721038 3.00337e-18 6.38424)
(0.594008 -1.74916e-18 5.91987)
(0.455065 -1.0611e-18 5.25196)
(0.30142 9.94377e-19 4.35108)
(0.192823 -1.20366e-18 3.15161)
(0.27605 -4.3145e-18 1.68664)
(0.524021 -8.19794e-19 0.0916109)
(0.681184 -6.24835e-19 -1.4444)
(0.871668 0 -2.86173)
(1.12814 0 -4.12543)
(1.44536 -1.51175e-19 -5.21618)
(1.82063 1.19364e-19 -6.10622)
(2.25323 -9.55084e-20 -6.76656)
(2.73368 -3.69682e-20 -7.17913)
(3.24562 0 -7.34443)
(3.7743 0 -7.29036)
(4.30507 -3.64975e-21 -7.05983)
(4.8251 0 -6.7038)
(5.32319 -5.73319e-22 -6.27342)
(5.78921 7.58417e-24 -5.81402)
(6.20501 2.21692e-22 -5.36641)
(6.64832 6.03801e-23 -4.93695)
(0.945649 0 5.93948)
(1.38675 0 6.22089)
(1.44439 5.97319e-19 6.43293)
(1.64395 1.7836e-21 6.61961)
(1.78166 3.70478e-18 6.76566)
(1.91105 -2.40068e-18 6.84618)
(2.0122 -2.64839e-18 6.83423)
(2.08697 5.30671e-18 6.70279)
(2.13755 -2.85133e-18 6.42494)
(2.1693 -8.80376e-19 5.97079)
(2.18731 1.62534e-18 5.30703)
(2.19286 1.89922e-18 4.39425)
(2.25086 2.37614e-20 3.1704)
(2.42386 2.45832e-18 1.70167)
(2.64559 3.27857e-18 0.100468)
(2.76648 -5.33744e-19 -1.49389)
(2.8813 4.27722e-19 -2.95893)
(3.0385 3.47673e-19 -4.26359)
(3.24618 -6.61158e-20 -5.39456)
(3.50641 6.02376e-20 -6.32256)
(3.81695 -1.05018e-21 -7.01014)
(4.16815 -4.94188e-22 -7.4386)
(4.54584 0 -7.61071)
(4.93677 4.38847e-21 -7.55462)
(5.3292 2.53905e-21 -7.31506)
(5.71331 -2.0409e-21 -6.94448)
(6.08083 -1.76935e-21 -6.49511)
(6.42335 1.23272e-21 -6.01291)
(6.73003 -5.09109e-22 -5.53803)
(7.04306 -1.33901e-22 -5.07709)
(1.06427 1.51382e-19 5.67381)
(1.65791 0 5.99726)
(1.88435 -5.83275e-19 6.21159)
(2.2357 5.85732e-19 6.39936)
(2.54187 -1.16617e-18 6.56538)
(2.83211 0 6.67275)
(3.09226 1.19006e-18 6.68828)
(3.32472 -1.24974e-18 6.5814)
(3.53306 -1.3173e-18 6.32298)
(3.7236 -6.97023e-19 5.88202)
(3.9019 0 5.2229)
(4.07466 0 4.29962)
(4.2758 -1.40945e-18 3.07331)
(4.50462 5.11657e-19 1.60518)
(4.71244 -1.11042e-18 0.0097851)
(4.80383 -2.30655e-19 -1.56663)
(4.85715 -5.7703e-19 -3.03033)
(4.92918 -6.29256e-19 -4.35231)
(5.04082 3.04674e-20 -5.51035)
(5.19686 -2.80312e-20 -6.46589)
(5.3927 8.38191e-20 -7.1764)
(5.61793 -7.60362e-21 -7.61873)
(5.86067 7.23485e-21 -7.79641)
(6.11109 -9.78906e-21 -7.73893)
(6.36173 -2.0148e-21 -7.49283)
(6.60691 -1.54363e-21 -7.11193)
(6.84194 0 -6.64917)
(7.0606 -7.29595e-22 -6.1507)
(7.25868 7.43069e-22 -5.65553)
(7.44551 -1.56567e-22 -5.17142)
(1.19977 -7.77621e-19 5.22904)
(1.89892 0 5.64938)
(2.28694 2.32385e-18 5.84043)
(2.79439 -2.25954e-18 6.01823)
(3.27226 1.08222e-18 6.20706)
(3.71719 -1.09829e-18 6.34802)
(4.12611 -1.13741e-18 6.3971)
(4.50573 0 6.32047)
(4.8613 0 6.08678)
(5.19886 6.51686e-19 5.66324)
(5.52337 0 5.01273)
(5.83907 7.48744e-19 4.09223)
(6.14708 1.9277e-20 2.88435)
(6.42459 -9.44706e-19 1.45338)
(6.63301 0 -0.0832973)
(6.70536 4.07919e-19 -1.6088)
(6.71823 -4.14279e-20 -3.05395)
(6.73335 3.26282e-19 -4.38565)
(6.77603 0 -5.56646)
(6.84888 -1.08274e-19 -6.54463)
(6.94389 1.0713e-20 -7.27152)
(7.05082 6.27661e-20 -7.72225)
(7.1617 0 -7.90215)
(7.2723 9.40271e-21 -7.84286)
(7.3811 -1.51802e-21 -7.59257)
(7.48763 1.52057e-21 -7.20595)
(7.59135 7.12239e-22 -6.73597)
(7.68857 -7.18863e-22 -6.22837)
(7.78084 6.03059e-22 -5.72053)
(7.84771 -2.88232e-23 -5.22194)
(9.99556 -3.79939e-22 0.113319)
(9.985 3.81883e-22 0.225698)
(9.96549 6.12578e-21 0.338839)
(9.93774 -6.18118e-21 0.454329)
(9.90276 5.4567e-21 0.573568)
(9.86096 1.58837e-21 0.697916)
(9.8125 -8.00971e-22 0.828723)
(9.75748 -6.46146e-21 0.967381)
(9.69605 -3.23071e-21 1.11533)
(9.62839 -3.32286e-21 1.27406)
(9.55463 0 1.44519)
(9.47493 -3.44793e-21 1.6304)
(9.38944 0 1.83153)
(9.29833 6.87688e-21 2.05059)
(9.20182 -2.81089e-20 2.2898)
(9.10017 2.80907e-20 2.55166)
(8.99368 4.21112e-20 2.83908)
(8.88277 -5.62462e-20 3.15546)
(8.76795 -8.42131e-20 3.5049)
(8.6499 8.35236e-20 3.89253)
(8.52954 1.06994e-19 4.32488)
(8.4081 -5.33648e-20 4.81038)
(8.2873 -2.97684e-19 5.3603)
(8.16968 1.9254e-19 5.99017)
(8.05946 4.98505e-19 6.72241)
(7.96448 -5.11865e-19 7.59092)
(7.90626 2.66643e-19 8.65057)
(7.94615 4.95452e-20 9.99587)
(8.62305 1.45235e-19 11.7639)
(9.10634 -1.05134e-22 14.657)
(9.99594 -3.6709e-22 0.117416)
(9.98666 3.68907e-22 0.233837)
(9.96945 -5.23448e-21 0.351008)
(9.94496 5.28311e-21 0.470546)
(9.91419 -1.21851e-22 0.593866)
(9.87758 4.76741e-23 0.722328)
(9.83533 3.10092e-21 0.857289)
(9.78763 3.11317e-21 1.00014)
(9.73471 1.26692e-20 1.15231)
(9.67684 0 1.31529)
(9.61429 2.42869e-20 1.49066)
(9.54737 -2.59523e-20 1.68009)
(9.47642 0 1.88538)
(9.40184 4.62009e-20 2.10847)
(9.32412 -5.28687e-20 2.35151)
(9.24387 2.60959e-20 2.61691)
(9.16184 0 2.90743)
(9.07898 0 3.22627)
(8.99658 0 3.57728)
(8.91632 -4.95913e-20 3.96522)
(8.84053 0 4.39607)
(8.77247 4.89224e-20 4.87741)
(8.71697 8.63362e-20 5.41923)
(8.68139 7.92038e-20 6.03482)
(8.67798 -7.79983e-20 6.74234)
(8.72833 0 7.56653)
(8.87449 -6.24383e-19 8.54012)
(9.14866 5.56014e-19 9.69758)
(9.8663 3.59976e-21 10.9929)
(10.5661 -1.07818e-19 12.1447)
(9.99634 1.12736e-20 0.1211)
(9.9884 1.13306e-20 0.241145)
(9.97358 0 0.361908)
(9.95249 0 0.485028)
(9.92608 -5.87083e-21 0.611922)
(9.89484 -5.84563e-21 0.743946)
(9.85901 0 0.882447)
(9.81884 -1.80787e-20 1.0288)
(9.77466 1.20809e-20 1.18441)
(9.72683 0 1.35074)
(9.67575 -2.23686e-20 1.52933)
(9.62187 7.13568e-20 1.72179)
(9.56572 -5.99341e-21 1.92983)
(9.50793 -4.99219e-20 2.1553)
(9.44925 -1.23173e-20 2.40021)
(9.39063 -2.53397e-20 2.6668)
(9.33322 -2.43146e-20 2.95757)
(9.2785 -1.94627e-19 3.27539)
(9.22839 2.40243e-19 3.6236)
(9.18546 4.17814e-19 4.00629)
(9.1532 -3.65578e-19 4.42842)
(9.13629 0 4.89598)
(9.14155 5.35559e-19 5.41644)
(9.17883 -1.28671e-19 5.99892)
(9.26263 -5.40577e-19 6.65403)
(9.4139 4.97643e-20 7.39247)
(9.66506 4.17489e-20 8.21994)
(10.0133 3.74289e-19 9.12481)
(10.5833 -3.68896e-19 10.0706)
(11.3658 0 10.8927)
(9.99675 -1.10079e-20 0.124327)
(9.99019 -1.10627e-20 0.247531)
(9.97785 6.92242e-22 0.3714)
(9.96025 -6.23058e-21 0.497579)
(9.93834 0 0.627483)
(9.9126 8.35715e-23 0.762451)
(9.88334 1.14406e-20 0.90381)
(9.85087 -1.14896e-20 1.0529)
(9.81559 0 1.2111)
(9.77796 0 1.37982)
(9.73851 -7.42148e-22 1.56051)
(9.69781 2.98449e-21 1.75472)
(9.65656 5.99043e-21 1.96404)
(9.61559 -1.16638e-20 2.19018)