/*--------------------------------*- C++ -*----------------------------------*\
| =========                 |                                                 |
| \\      /  F ield         | OpenFOAM: The Open Source CFD Toolbox           |
|  \\    /   O peration     | Version:  2012                                  |
|   \\  /    A nd           | Website:  www.openfoam.com                      |
|    \\/     M anipulation  |                                                 |
\*---------------------------------------------------------------------------*/
FoamFile
{
    version     2.0;
    format      ascii;
    class       surfaceVectorField;
    location    "0.5";
    object      Uf;
}
// * * * * * * * * * * * * * * * * * * * * * * * * * * * * * * * * * * * * * //

dimensions      [0 1 -1 0 0 0 0];


internalField   nonuniform List<vector> 
5457
(
(9.92492 8.73224e-22 0.0236095)
(9.97183 -8.63756e-22 0.0366921)
(9.83594 4.34698e-22 0.0302863)
(9.93538 8.76608e-22 0.0445305)
(9.73312 -1.87145e-21 0.0357117)
(9.8724 -1.78442e-21 0.0526916)
(9.61406 -3.29718e-21 0.0413115)
(9.78722 3.61182e-21 0.0624606)
(9.47858 6.47116e-21 0.0470851)
(9.68483 -1.87805e-21 0.0727458)
(9.32674 2.647e-21 0.0530543)
(9.56622 8.81944e-21 0.0834243)
(9.15825 -4.96422e-21 0.0593465)
(9.43067 -7.95277e-21 0.0947181)
(8.97245 0 0.0660916)
(9.27729 0 0.106847)
(8.76845 1.14788e-21 0.0733975)
(9.10528 -2.10948e-21 0.119986)
(8.5452 1.12255e-21 0.0813607)
(8.91371 3.75432e-23 0.134288)
(8.3015 1.27205e-20 0.0900748)
(8.70146 0 0.149905)
(8.03605 4.60502e-21 0.0996297)
(8.46722 1.02573e-20 0.166984)
(7.74749 -1.33294e-20 0.110109)
(8.2096 -9.56617e-21 0.18566)
(7.43447 3.31056e-21 0.121585)
(7.92713 -6.25561e-21 0.206048)
(7.09571 1.18319e-20 0.134112)
(7.61836 2.0143e-20 0.228232)
(6.73015 3.10717e-21 0.147713)
(7.28194 -1.41128e-20 0.252242)
(6.33709 -1.43398e-20 0.162363)
(6.91677 5.02562e-20 0.278024)
(5.91636 -1.39757e-20 0.177973)
(6.52209 5.3885e-20 0.305409)
(5.46848 -3.41304e-20 0.194377)
(6.09768 -3.38779e-19 0.334098)
(4.9949 3.76426e-20 0.211296)
(5.64404 -7.01398e-20 0.363613)
(4.49815 1.46573e-19 0.228314)
(5.16261 2.60391e-19 0.393242)
(3.98203 7.54206e-20 0.244861)
(4.65584 4.3149e-19 0.422008)
(3.45167 -9.21853e-20 0.260211)
(4.12736 1.34578e-20 0.448667)
(2.91351 -8.9289e-20 0.273477)
(3.58201 -8.16192e-19 0.471695)
(2.37516 -2.19671e-19 0.283632)
(3.0256 0 0.489285)
(1.84524 -2.13267e-19 0.28955)
(2.4647 -2.47681e-20 0.499347)
(1.33314 0 0.290013)
(1.9062 0 0.499531)
(0.848687 -1.95623e-18 0.284863)
(1.35721 0 0.487133)
(0.397868 4.63987e-19 0.268742)
(0.805887 -1.68668e-18 0.46246)
(0.373595 2.37702e-18 0.408905)
(10.0006 -8.33336e-22 0.0471129)
(9.99767 -1.29569e-21 0.0364029)
(9.97101 -1.37349e-21 0.063269)
(9.98532 -1.3043e-21 0.0593378)
(9.92217 3.76019e-21 0.0773383)
(9.95062 -1.39889e-23 0.0777203)
(9.85577 4.968e-21 0.0922018)
(9.89471 7.26823e-21 0.0972943)
(9.7715 5.93605e-22 0.10787)
(9.82118 -4.26642e-22 0.117993)
(9.66916 -1.97324e-21 0.124355)
(9.73109 5.30453e-23 0.139651)
(9.54841 -2.89867e-21 0.141923)
(9.62396 -3.42471e-21 0.162598)
(9.40861 -2.13317e-21 0.160874)
(9.49903 2.5158e-21 0.187241)
(9.24887 -3.19593e-21 0.181465)
(9.35553 -4.18679e-21 0.213939)
(9.06811 -1.08555e-21 0.203932)
(9.1926 -1.09778e-21 0.243017)
(8.86507 -2.34968e-21 0.228506)
(9.00914 0 0.274798)
(8.63835 -4.1393e-21 0.255409)
(8.80387 -2.30351e-21 0.309604)
(8.38642 -2.45601e-21 0.28484)
(8.57536 -6.7253e-21 0.347744)
(8.10772 1.08796e-20 0.316964)
(8.32206 4.08658e-20 0.389494)
(7.80068 -6.20809e-21 0.351889)
(8.04235 -2.02988e-20 0.435078)
(7.46385 3.38068e-20 0.389629)
(7.73462 -2.86141e-20 0.484631)
(7.09605 1.1856e-19 0.430058)
(7.39741 -1.43357e-19 0.538142)
(6.69647 -2.76002e-19 0.472881)
(7.02945 4.72249e-19 0.595407)
(6.26486 -3.71317e-19 0.51758)
(6.62974 -5.50337e-19 0.655981)
(5.8017 1.57131e-19 0.563349)
(6.19793 3.6889e-19 0.719095)
(5.3084 5.47695e-19 0.609044)
(5.73429 -2.28772e-19 0.783564)
(4.78735 3.63332e-19 0.653152)
(5.23986 3.55966e-19 0.847746)
(4.242 -7.22794e-19 0.693809)
(4.71653 1.34628e-20 0.90951)
(3.67674 -7.13817e-19 0.728841)
(4.16707 9.42496e-19 0.966278)
(3.09653 1.95466e-19 0.755848)
(3.59488 -9.65668e-19 1.01511)
(2.50637 1.89915e-19 0.772442)
(3.00358 1.92522e-19 1.05286)
(1.91013 0 0.776701)
(2.39618 -2.70282e-18 1.07666)
(1.30845 2.5069e-19 0.769243)
(1.77544 3.32442e-18 1.08484)
(0.693055 2.47015e-19 0.747508)
(1.12326 -6.61103e-19 1.08308)
(0.546135 5.0228e-19 1.05833)
(9.9931 -1.76218e-21 0.0517829)
(9.99541 0 0.0397732)
(9.96622 7.04209e-23 0.076815)
(9.98033 1.29822e-21 0.0727911)
(9.92049 3.57747e-21 0.100308)
(9.94629 2.20559e-21 0.101156)
(9.85834 1.78568e-21 0.124972)
(9.89297 4.12831e-24 0.1299)
(9.77998 -9.62235e-22 0.151075)
(9.82285 0 0.16007)
(9.68516 -1.43894e-21 0.178718)
(9.737 -9.51294e-22 0.191749)
(9.57358 2.05701e-21 0.208274)
(9.63517 -4.92877e-22 0.225323)
(9.44473 3.8664e-22 0.240186)
(9.51678 5.12792e-22 0.261339)
(9.29786 -2.0544e-21 0.274877)
(9.38117 2.06034e-21 0.300321)
(9.13202 0 0.312747)
(9.22763 0 0.342765)
(8.94608 1.85873e-23 0.354203)
(9.0552 0 0.389166)
(8.73872 -4.93855e-21 0.399646)
(8.86278 4.6403e-21 0.440033)
(8.50845 3.71333e-20 0.449456)
(8.64907 -4.38025e-20 0.49587)
(8.25368 8.98447e-21 0.503968)
(8.41263 4.05378e-20 0.557153)
(7.97271 -4.28044e-20 0.563435)
(8.1519 -7.53056e-20 0.624298)
(7.66388 -2.07148e-19 0.62798)
(7.86526 5.36928e-20 0.697616)
(7.32558 2.17903e-19 0.697536)
(7.55112 -3.35262e-19 0.777254)
(6.9564 1.84906e-19 0.771779)
(7.20789 7.46014e-19 0.863133)
(6.55523 2.02233e-19 0.850049)
(6.83409 -4.8514e-20 0.954841)
(6.12148 -2.53003e-20 0.931257)
(6.42862 -3.03729e-19 1.05154)
(5.65511 -4.12467e-19 1.01381)
(5.9907 1.52637e-19 1.15188)
(5.15677 9.87749e-22 1.09555)
(5.51997 2.47347e-19 1.25389)
(4.62779 1.69327e-18 1.1738)
(5.01659 0 1.35495)
(4.07009 6.6347e-19 1.24543)
(4.48119 1.10521e-18 1.45184)
(3.48591 -9.51723e-19 1.30704)
(3.91483 -1.27029e-18 1.54091)
(2.87713 -2.7365e-18 1.35549)
(3.31861 -2.63197e-18 1.61839)
(2.24438 6.80124e-19 1.38873)
(2.69295 -2.47124e-19 1.68109)
(1.58633 2.38241e-18 1.40855)
(2.03941 3.31557e-18 1.72745)
(0.89793 -3.93308e-19 1.41663)
(1.34124 -4.86734e-19 1.76405)
(0.677526 -6.87236e-18 1.7835)
(9.98915 3.07545e-21 0.061025)
(9.99423 0 0.0450733)
(9.96205 3.4445e-21 0.0961352)
(9.97737 -4.20142e-22 0.0863562)
(9.91711 -1.39254e-21 0.129686)
(9.94299 -1.10333e-21 0.124187)
(9.85592 -1.78113e-21 0.164004)
(9.8906 -2.24969e-21 0.162002)
(9.77901 0 0.199849)
(9.8219 2.27548e-22 0.201363)
(9.68627 0 0.237604)
(9.73784 0 0.242707)
(9.57742 -2.02529e-21 0.277796)
(9.6383 -9.68797e-22 0.286514)
(9.45206 2.2035e-21 0.32103)
(9.52281 2.92774e-21 0.333425)
(9.3096 4.09126e-21 0.367902)
(9.39081 1.74245e-23 0.384104)
(9.14928 0 0.418997)
(9.24169 -2.45288e-23 0.439192)
(8.97014 4.67257e-21 0.47491)
(9.07465 8.70884e-21 0.499338)
(8.77109 -3.47612e-20 0.536246)
(8.88871 1.3655e-20 0.565216)
(8.55086 -3.94597e-20 0.603598)
(8.68278 -7.70542e-20 0.637512)
(8.30804 -4.50643e-20 0.677522)
(8.45559 5.73861e-20 0.716895)
(8.04113 2.26729e-20 0.758487)
(8.20575 3.93884e-20 0.80398)
(7.74854 -7.89812e-20 0.846832)
(7.93181 1.54231e-19 0.899286)
(7.42865 2.05951e-19 0.942696)
(7.63223 -3.64001e-19 1.00319)
(7.07985 5.02682e-19 1.04591)
(7.30539 3.4241e-19 1.11583)
(6.70065 -5.57685e-19 1.15592)
(6.94965 3.11397e-19 1.23698)
(6.28973 -1.20017e-19 1.27163)
(6.56351 -1.55766e-18 1.36596)
(5.84604 8.14408e-19 1.39135)
(6.14547 4.39934e-19 1.50151)
(5.36881 2.4288e-19 1.51268)
(5.6942 1.05287e-18 1.64166)
(4.85761 -5.71564e-19 1.63252)
(5.20853 2.46185e-19 1.78365)
(4.31227 -8.64085e-19 1.74715)
(4.68739 -2.97416e-19 1.92395)
(3.73279 -2.96816e-18 1.85256)
(4.12995 -3.04502e-19 2.05841)
(3.11903 -1.19493e-19 1.94482)
(3.53549 -5.07376e-18 2.1826)
(2.4704 2.42501e-18 2.02099)
(2.9031 1.02887e-17 2.29238)
(1.78661 4.21028e-19 2.08135)
(2.23459 -5.25713e-18 2.38438)
(1.07026 -7.02089e-18 2.12681)
(1.51984 4.16868e-19 2.46071)
(0.797016 -7.74156e-18 2.51723)
(9.98727 -3.50045e-21 0.0709186)
(9.99368 3.39569e-21 0.0512943)
(9.95958 -4.97552e-21 0.114566)
(9.97589 -1.73466e-21 0.100215)
(9.91533 -1.97379e-21 0.156934)
(9.94139 1.94597e-21 0.146866)
(9.85523 -2.12324e-22 0.200047)
(9.88994 -4.47661e-22 0.19353)
(9.77983 2.24932e-22 0.245003)
(9.82283 2.27547e-22 0.241847)
(9.68909 -9.79834e-22 0.292428)
(9.74077 3.70406e-21 0.292566)
(9.58274 4.02833e-21 0.342955)
(9.64369 -9.68801e-22 0.346298)
(9.46041 7.09175e-22 0.397288)
(9.53115 -2.8966e-21 0.403768)
(9.32157 -4.09861e-21 0.456143)
(9.40269 -1.02388e-22 0.465752)
(9.16555 8.78091e-21 0.520235)
(9.25773 4.14768e-21 0.533026)
(8.99149 1.77462e-20 0.590295)
(9.09552 -1.72935e-20 0.606378)
(8.7984 -2.96361e-20 0.667079)
(8.91519 4.48658e-20 0.686624)
(8.58519 2.12818e-20 0.751348)
(8.71574 -1.02879e-19 0.774607)
(8.3506 1.41655e-19 0.843838)
(8.49603 -6.15444e-22 0.87117)
(8.09329 1.72271e-19 0.94522)
(8.25481 2.6269e-19 0.97712)
(7.81178 -1.36754e-19 1.05606)
(7.9907 1.75778e-19 1.09319)
(7.50454 -2.19262e-19 1.17673)
(7.70226 -3.94185e-19 1.22001)
(7.16994 1.50603e-19 1.30732)
(7.38787 4.62634e-20 1.35797)
(6.80631 -7.12185e-19 1.4475)
(7.04586 5.25001e-20 1.50715)
(6.41194 -9.72112e-19 1.59643)
(6.67443 -8.50114e-19 1.66716)
(5.98511 6.85932e-19 1.75259)
(6.27168 -2.37096e-19 1.83704)
(5.52408 1.04552e-18 1.91363)
(5.83557 6.97732e-19 2.01508)
(5.02713 5.12977e-19 2.07638)
(5.36394 2.42062e-19 2.19863)
(4.49257 2.62771e-19 2.23679)
(4.85453 -1.73399e-18 2.3841)
(3.91881 -2.47403e-18 2.39022)
(4.30507 2.08598e-18 2.56692)
(3.30455 5.5169e-18 2.5317)
(3.71353 -2.44316e-18 2.74171)
(2.64921 2.44915e-18 2.65634)
(3.07835 1.29626e-17 2.90254)
(1.95427 -5.20198e-18 2.76034)
(2.40165 -1.10321e-17 3.04285)
(1.22901 -4.27827e-19 2.84002)
(1.68356 0 3.15644)
(0.913944 -6.43426e-18 3.24058)
(9.98642 5.10032e-21 0.0811899)
(9.99346 -5.10235e-23 0.0579321)
(9.95846 5.2302e-21 0.132868)
(9.97533 1.77798e-21 0.114209)
(9.91504 3.44414e-21 0.183807)
(9.94108 6.26215e-24 0.169115)
(9.85639 0 0.235702)
(9.89081 0 0.224301)
(9.78289 3.74661e-21 0.289753)
(9.82558 0 0.281312)
(9.69455 3.66191e-21 0.346744)
(9.74592 -3.65284e-21 0.341104)
(9.59113 -7.91504e-21 0.407407)
(9.65173 -1.89753e-21 0.404432)
(9.47228 -3.67687e-21 0.472535)
(9.54265 -2.02691e-21 0.472109)
(9.33751 8.19133e-21 0.54296)
(9.41824 2.77769e-23 0.545007)
(9.18618 -2.21625e-20 0.619528)
(9.27797 4.17203e-21 0.624029)
(9.0175 1.05073e-20 0.703109)
(9.12115 -4.30752e-20 0.710096)
(8.83055 -2.9988e-20 0.794604)
(8.94695 6.19055e-20 0.804148)
(8.62431 -1.23663e-19 0.894939)
(8.75443 -4.62567e-20 0.907176)
(8.39762 1.23293e-19 1.00503)
(8.54252 -1.14678e-19 1.02019)
(8.1492 2.65261e-19 1.12575)
(8.31004 1.60179e-19 1.14418)
(7.87765 -8.80426e-20 1.25791)
(8.05566 2.50322e-19 1.2801)
(7.58145 -1.2357e-19 1.40214)
(7.77792 -6.36327e-19 1.42882)
(7.25895 -5.17807e-20 1.55885)
(7.47523 3.74351e-20 1.59105)
(6.90832 -9.63408e-20 1.72804)
(7.14579 6.34365e-19 1.76721)
(6.52757 -1.06978e-19 1.90925)
(6.78761 -1.24632e-18 1.95734)
(6.11447 -2.13907e-19 2.1013)
(6.39839 7.85343e-19 2.1609)
(5.66658 -1.12763e-19 2.30216)
(5.97556 -4.20646e-21 2.37661)
(5.18122 -2.03215e-18 2.50876)
(5.51616 -2.263e-19 2.60218)
(4.65553 1.36293e-19 2.7169)
(5.01694 -2.23199e-18 2.83413)
(4.08673 2.06118e-18 2.92117)
(4.47443 2.08922e-18 3.06752)
(3.47268 5.18826e-18 3.11502)
(3.88549 -2.54722e-19 3.29578)
(2.81308 -7.74323e-19 3.29068)
(3.24781 4.85039e-18 3.51043)
(2.11071 -5.71351e-18 3.43857)
(2.56287 -5.62669e-18 3.70101)
(1.37863 -6.10577e-18 3.54688)
(1.84282 5.19289e-18 3.85133)
(1.03022 -1.16304e-17 3.95394)
(9.98614 -3.35154e-21 0.0915939)
(9.99342 -3.44674e-21 0.0647057)
(9.95832 -3.4667e-21 0.150936)
(9.97536 5.34439e-23 0.128133)
(9.91593 -3.43781e-21 0.210047)
(9.94173 -3.47847e-21 0.190836)
(9.859 0 0.270382)
(9.89289 2.19781e-22 0.254169)
(9.78776 -7.44123e-21 0.333166)
(9.82983 3.78221e-21 0.319561)
(9.70225 -9.19223e-21 0.39932)
(9.75292 -4.15652e-21 0.388089)
(9.60226 3.98907e-21 0.469692)
(9.66208 -1.89754e-21 0.460641)
(9.48745 1.70093e-21 0.545173)
(9.55698 9.6469e-21 0.538122)
(9.35737 -3.94579e-21 0.626705)
(9.43722 -7.88066e-21 0.621499)
(9.21142 -1.72587e-20 0.715258)
(9.30231 0 0.711783)
(9.04888 9.46619e-21 0.811831)
(9.15162 -4.20838e-20 0.810018)
(8.86888 4.44674e-20 0.917461)
(8.98439 4.3026e-20 0.917279)
(8.67042 -3.79951e-20 1.03322)
(8.79968 2.73611e-20 1.0347)
(8.4524 -7.48399e-20 1.1602)
(8.59651 -5.54529e-20 1.16343)
(8.21359 1.46169e-19 1.29947)
(8.37371 -3.82914e-20 1.30466)
(7.95258 -3.07647e-19 1.45209)
(8.12997 2.53096e-20 1.45957)
(7.66782 -4.68044e-19 1.61897)
(7.86385 -3.45303e-19 1.62931)
(7.35759 7.30434e-19 1.80087)
(7.57367 3.33031e-20 1.8149)
(7.0199 -5.37018e-19 1.99822)
(7.25753 1.08415e-18 2.01717)
(6.65245 -3.3094e-19 2.21103)
(6.91318 -1.60533e-18 2.23666)
(6.25257 9.86632e-19 2.43864)
(6.538 8.90922e-19 2.47341)
(5.81717 -1.20338e-19 2.67951)
(6.12884 1.05755e-19 2.72673)
(5.34272 -4.5045e-19 2.93089)
(5.68202 -2.22313e-19 2.99487)
(4.8253 -2.25522e-19 3.18855)
(5.19327 -1.10169e-20 3.27466)
(4.26099 -2.58025e-19 3.44633)
(4.65791 -1.81297e-18 3.56099)
(3.64653 -5.34006e-19 3.69563)
(4.07141 1.86716e-18 3.8461)
(2.98127 -1.19707e-19 3.92511)
(3.43014 -2.79059e-19 4.11847)
(2.26851 5.41236e-18 4.11874)
(2.73335 2.89249e-19 4.36341)
(1.52213 -6.85227e-19 4.25319)
(2.00442 9.66608e-18 4.55442)
(1.14664 -5.63357e-18 4.6718)
(9.98621 0 0.101933)
(9.9935 0 0.0714445)
(9.95888 0 0.168618)
(9.9758 3.36651e-21 0.141812)
(9.91776 2.22349e-22 0.235502)
(9.94311 -3.40857e-21 0.211913)
(9.86281 4.04326e-21 0.303911)
(9.89596 3.898e-21 0.282998)
(9.79418 6.97563e-21 0.375075)
(9.83534 1.73599e-23 0.356408)
(9.7119 3.16376e-21 0.45002)
(9.76155 -3.89302e-22 0.433294)
(9.61581 3.89031e-21 0.529702)
(9.67449 -1.85237e-21 0.514654)
(9.5056 -1.29989e-22 0.615105)
(9.57387 1.96847e-21 0.601489)
(9.38085 -3.84807e-21 0.707265)
(9.45934 -1.1672e-20 0.694853)
(9.24101 -2.52841e-20 0.807264)
(9.33045 7.86246e-21 0.795854)
(9.08541 -7.60503e-21 0.916228)
(9.18664 -1.68298e-20 0.905648)
(8.91325 2.57501e-20 1.03533)
(9.02719 1.69564e-20 1.02545)
(8.72358 9.02164e-21 1.16578)
(8.85125 -2.59445e-20 1.15652)
(8.51534 -1.87121e-20 1.30885)
(8.65789 5.33204e-20 1.30017)
(8.28729 -1.58513e-19 1.46582)
(8.44595 -2.88587e-22 1.45778)
(8.03806 -1.63113e-20 1.63799)
(8.21419 -1.38551e-19 1.63076)
(7.76606 1.60367e-19 1.82661)
(7.96112 1.19571e-19 1.82054)
(7.46944 3.98229e-19 2.0328)
(7.68502 3.26824e-19 2.02851)
(7.14605 -1.345e-20 2.25749)
(7.38388 -3.13013e-19 2.25597)
(6.7933 -3.55368e-19 2.50128)
(7.05522 -7.1414e-19 2.50401)
(6.40804 0 2.76418)
(6.69609 7.4376e-20 2.77341)
(5.98653 0 3.04532)
(6.30279 1.47459e-18 3.06423)
(5.52433 2.203e-19 3.34253)
(5.87083 -8.51473e-19 3.37552)
(5.01634 -1.62107e-18 3.65178)
(5.39484 2.1812e-19 3.70478)
(4.45711 3.55673e-19 3.9664)
(4.86862 -1.59463e-19 4.04704)
(3.84173 2.09789e-18 4.27568)
(4.28554 4.68195e-19 4.39368)
(3.16795 1.37657e-19 4.56445)
(3.63998 0 4.73041)
(2.43818 4.68312e-18 4.80994)
(2.92682 1.35872e-19 5.03803)
(1.66461 4.33833e-18 4.9748)
(2.17741 4.51031e-18 5.28017)
(1.26649 -4.00188e-20 5.41873)
(9.98651 3.40659e-21 0.11206)
(9.99365 2.59712e-23 0.0780358)
(9.95997 -1.21978e-22 0.185776)
(9.97653 -2.24666e-23 0.155098)
(9.92034 3.52472e-22 0.260044)
(9.94504 3.37368e-21 0.232222)
(9.86763 -1.72642e-22 0.336139)
(9.89985 2.26009e-22 0.310651)
(9.80194 -7.3521e-21 0.415295)
(9.84194 -7.24857e-21 0.391681)
(9.72329 -5.42208e-21 0.498617)
(9.7716 -3.56099e-21 0.476507)
(9.63155 -3.73123e-21 0.587154)
(9.68871 -1.85238e-21 0.56622)
(9.52645 -9.72528e-21 0.681979)
(9.59304 1.85096e-21 0.661909)
(9.40763 2.5299e-22 0.784219)
(9.48429 -7.78126e-21 0.764712)
(9.27459 1.60489e-20 0.895057)
(9.36205 7.86278e-21 0.875825)
(9.12672 8.09552e-21 1.01573)
(9.22582 8.18313e-21 0.99651)
(8.96329 -3.51956e-20 1.14755)
(9.07497 0 1.1281)
(8.78342 1.91766e-20 1.29188)
(8.90874 -6.87722e-20 1.27198)
(8.5861 7.11981e-20 1.45015)
(8.72623 8.73467e-20 1.42964)
(8.37015 1.82734e-20 1.62386)
(8.5264 1.84645e-20 1.60263)
(8.1342 0 1.81457)
(8.30803 -1.47438e-19 1.7926)
(7.87664 2.8815e-19 2.02386)
(8.06965 -2.8229e-21 2.00129)
(7.59557 -3.9106e-19 2.2533)
(7.80957 7.49935e-19 2.23048)
(7.28866 -1.01874e-18 2.50436)
(7.52567 -9.81725e-19 2.48194)
(6.95307 -2.76339e-19 2.77836)
(7.2153 2.62439e-19 2.75747)
(6.58521 1.56464e-18 3.07611)
(6.87527 -6.33881e-19 3.05867)
(6.18067 5.99709e-19 3.39768)
(6.50138 1.43554e-18 3.38659)
(5.734 -8.43378e-19 3.74183)
(6.08831 6.59861e-19 3.74141)
(5.23859 1.67952e-18 4.10522)
(5.62948 -2.90871e-18 4.1218)
(4.68696 -4.03141e-20 4.48109)
(5.11665 3.20139e-18 4.52364)
(4.07152 -1.64005e-18 4.85727)
(4.54033 -1.7149e-18 4.93822)
(3.38684 0 5.21507)
(3.8918 -1.52712e-21 5.34944)
(2.63233 3.18203e-20 5.52474)
(3.159 0 5.73384)
(1.81638 -4.18871e-21 5.73306)
(2.37617 2.16968e-21 6.04555)
(1.39743 -6.15078e-20 6.22321)
(9.98698 -3.4036e-21 0.121863)
(9.99386 2.59712e-23 0.0844004)
(9.96145 3.5132e-21 0.202288)
(9.97748 2.78133e-23 0.167874)
(9.92355 3.21047e-21 0.283548)
(9.94743 3.0926e-21 0.251647)
(9.87332 -6.9363e-21 0.366916)
(9.90443 -3.66711e-21 0.337)
(9.81086 -3.41536e-21 0.453638)
(9.84949 4.20781e-22 0.425218)
(9.73619 2.79382e-23 0.54488)
(9.7829 3.56274e-21 0.517533)
(9.64922 3.7712e-21 0.641772)
(9.70456 0 0.615105)
(9.54973 3.68812e-21 0.745471)
(9.61426 4.7925e-23 0.719105)
(9.4374 0 0.857185)
(9.51177 3.71273e-21 0.830746)
(9.3118 0 0.978189)
(9.39675 7.59164e-21 0.951308)
(9.1724 0 1.10983)
(9.26877 -1.57523e-20 1.08214)
(9.01855 -3.42972e-20 1.25353)
(9.12728 7.93718e-21 1.22469)
(8.84945 1.00489e-21 1.4108)
(8.97163 -8.99638e-22 1.38046)
(8.66419 3.39062e-20 1.58325)
(8.80101 -6.67463e-20 1.55109)
(8.46166 -1.48938e-19 1.77259)
(8.61448 6.81951e-20 1.73832)
(8.24056 -1.48911e-19 1.98064)
(8.41092 -1.47507e-19 1.94403)
(7.99931 4.66374e-19 2.20933)
(8.18893 6.08053e-21 2.17026)
(7.736 1.4276e-19 2.46069)
(7.94694 4.46721e-19 2.41919)
(7.44822 3.1221e-19 2.73682)
(7.68277 -3.1481e-19 2.69313)
(7.13296 -1.03248e-19 3.03982)
(7.39374 6.57575e-19 2.99462)
(6.78632 -7.45011e-19 3.37155)
(7.0766 -7.49608e-19 3.3262)
(6.40324 1.4883e-18 3.73329)
(6.72675 -1.5846e-21 3.69017)
(5.97723 -1.44162e-18 4.12526)
(6.33817 1.49769e-18 4.08829)
(5.49995 -1.32562e-18 4.54551)
(5.90298 -2.89774e-18 4.52108)
(4.96122 1.47145e-18 4.98819)
(5.41072 1.48746e-19 4.98632)
(4.34955 -5.0511e-20 5.44101)
(4.84841 1.32907e-18 5.47674)
(3.65414 -1.50323e-21 5.88271)
(4.20225 -2.13944e-20 5.97631)
(2.86826 -2.98063e-20 6.27674)
(3.45022 0 6.45858)
(1.99377 -5.65708e-20 6.55213)
(2.62249 1.71137e-20 6.8685)
(1.55287 -2.25541e-20 7.1168)
(9.98756 3.45737e-21 0.131255)
(9.99411 0 0.0904792)
(9.96325 -3.56505e-22 0.218045)
(9.97861 3.39087e-21 0.180045)
(9.92728 -3.86388e-21 0.305894)
(9.95017 -3.68937e-21 0.270079)
(9.87977 3.73707e-21 0.396102)
(9.90958 -2.1505e-22 0.361926)
(9.82081 7.43454e-21 0.489933)
(9.85786 3.90448e-21 0.456876)
(9.75044 3.49425e-21 0.588604)
(9.7953 2.66117e-21 0.556194)
(9.66861 -3.72271e-21 0.693314)
(9.72182 2.62018e-21 0.661098)
(9.57516 1.12886e-22 0.805292)
(9.63728 1.69155e-21 0.772826)
(9.46983 1.13468e-20 0.92582)
(9.5415 7.40845e-21 0.892659)
(9.35226 -8.41105e-21 1.05626)
(9.43421 -1.4937e-20 1.02195)
(9.22201 -7.56685e-21 1.19804)
(9.31508 -4.35815e-21 1.16213)
(9.07853 4.12457e-20 1.35271)
(9.18365 1.58074e-20 1.31473)
(8.92113 -6.93178e-20 1.52189)
(9.03938 9.01817e-22 1.48137)
(8.74901 -3.11399e-20 1.70736)
(8.88159 -7.27156e-20 1.66382)
(8.56119 6.75447e-20 1.91103)
(8.70949 6.82158e-20 1.864)
(8.35647 8.99247e-21 2.13498)
(8.52208 4.19204e-21 2.08399)
(8.13342 -9.5506e-21 2.38152)
(8.31816 1.39454e-19 2.32612)
(7.89018 -1.8042e-20 2.65312)
(8.0963 -7.15119e-21 2.59298)
(7.62443 3.94528e-20 2.95252)
(7.85441 -4.30101e-19 2.88743)
(7.33313 -1.55782e-21 3.28274)
(7.59004 6.19659e-19 3.21271)
(7.01226 1.55544e-21 3.64681)
(7.30003 -3.32533e-19 3.57247)
(6.65634 2.03208e-20 4.04762)
(6.97962 6.31382e-19 3.97045)
(6.25792 6.68959e-22 4.48742)
(6.62245 -1.19456e-18 4.41046)
(5.80699 -1.39141e-18 4.96667)
(6.2196 6.01543e-19 4.89568)
(5.29036 1.79339e-20 5.4822)
(5.75878 -1.38143e-18 5.42719)
(4.69134 1.34074e-18 6.02383)
(5.22307 1.38444e-18 6.00166)
(3.99075 -1.95272e-20 6.57014)
(4.59151 1.17231e-18 6.60662)
(3.17066 4.74676e-20 7.07915)
(3.82831 -1.25643e-18 7.21621)
(2.22036 5.0609e-20 7.45995)
(2.94939 3.93629e-21 7.76807)
(1.75515 1.43478e-18 8.14054)
(9.98824 -2.60083e-23 0.140166)
(9.9944 0 0.096227)
(9.96529 -2.53992e-23 0.232955)
(9.97987 -3.10154e-21 0.191531)
(9.93144 0 0.326976)
(9.95321 -2.05837e-22 0.287426)
(9.88685 0 0.423571)
(9.91522 0 0.385319)
(9.83164 -8.83128e-22 0.524028)
(9.86692 0 0.486524)
(9.76586 1.78661e-21 0.629606)
(9.80863 -4.28639e-21 0.592331)
(9.68951 8.024e-21 0.741561)
(9.74032 8.31181e-22 0.704009)
(9.60249 9.05026e-21 0.861182)
(9.66187 4.85599e-23 0.822847)
(9.5046 -1.91174e-20 0.98982)
(9.57318 6.72263e-23 0.950187)
(9.39559 -1.07718e-20 1.1289)
(9.47408 -1.88263e-20 1.08744)
(9.2751 1.92273e-20 1.27994)
(9.36432 7.62684e-21 1.2361)
(9.1427 -2.46924e-20 1.44456)
(9.24356 1.1648e-20 1.39777)
(8.99783 -3.24056e-21 1.62452)
(9.11138 -1.65255e-20 1.57418)
(8.83983 2.80338e-20 1.82172)
(8.96727 1.66026e-20 1.76719)
(8.6679 4.23273e-21 2.03826)
(8.8106 -3.23548e-20 1.97887)
(8.48103 1.35942e-19 2.27646)
(8.64058 3.35282e-20 2.21149)
(8.27797 1.40624e-19 2.53895)
(8.45625 1.3074e-19 2.46762)
(8.0571 -4.23025e-19 2.82867)
(8.25641 -1.15339e-19 2.75024)
(7.81631 1.58996e-19 3.149)
(8.03933 -2.95506e-19 3.06268)
(7.55282 2.81054e-19 3.50385)
(7.80293 3.07153e-19 3.40891)
(7.26273 3.05639e-19 3.8976)
(7.54434 -1.08668e-20 3.79363)
(6.94052 -5.99217e-19 4.33501)
(7.25919 5.96115e-19 4.22226)
(6.57835 -5.79051e-19 4.82096)
(6.94135 -1.17867e-18 4.7009)
(6.1651 5.949e-19 5.35961)
(6.58182 4.61913e-20 5.23608)
(5.68476 1.80052e-20 5.95276)
(6.16733 1.10573e-20 5.83396)
(5.11463 1.21296e-18 6.59612)
(5.67759 -4.98833e-19 6.4985)
(4.42409 -1.16136e-19 7.27358)
(5.08388 2.27148e-18 7.22667)
(3.57622 -1.27155e-18 7.94288)
(4.33279 -1.26201e-18 8.00171)
(2.53347 1.4281e-18 8.49326)
(3.41107 9.1239e-19 8.76299)
(2.04546 -6.81581e-19 9.35851)
(9.98899 -3.11233e-21 0.148542)
(9.99471 -6.40172e-21 0.101609)
(9.96754 -3.2477e-21 0.246937)
(9.98124 1.45617e-22 0.202269)
(9.93597 -2.03432e-22 0.346699)
(9.95649 2.0311e-22 0.303606)
(9.89448 0 0.44921)
(9.92126 -3.69495e-21 0.407084)
(9.84322 -3.45234e-21 0.555786)
(9.87657 3.32285e-21 0.514047)
(9.78228 -5.18364e-21 0.667722)
(9.82277 2.50638e-21 0.625809)
(9.71171 -7.15263e-21 0.786317)
(9.75985 -5.24944e-21 0.743674)
(9.63145 -8.93408e-21 0.912912)
(9.68779 -9.48682e-22 0.868976)
(9.5414 1.5278e-22 1.04891)
(9.60653 -5.40887e-21 1.0031)
(9.44139 -1.45689e-22 1.19579)
(9.51599 1.26904e-20 1.1475)
(9.33119 8.92543e-23 1.35513)
(9.41604 -1.40026e-22 1.30373)
(9.21047 1.95278e-20 1.52863)
(9.30646 1.87239e-21 1.47344)
(9.07885 3.64851e-21 1.71813)
(9.18697 4.44451e-22 1.65843)
(8.93584 -4.42693e-20 1.92565)
(9.05725 3.6407e-21 1.86064)
(8.78084 -2.45105e-21 2.15344)
(8.91687 -3.23614e-20 2.08225)
(8.6131 2.9204e-20 2.404)
(8.7653 -3.23109e-21 2.32567)
(8.43166 -1.27423e-19 2.68025)
(8.60187 2.76884e-20 2.59367)
(8.23527 1.07285e-20 2.98553)
(8.42575 -1.26479e-19 2.8895)
(8.02225 -1.42499e-19 3.32378)
(8.23571 2.63823e-19 3.2169)
(7.79026 1.22549e-20 3.69978)
(8.03025 -5.31229e-19 3.58047)
(7.536 2.84592e-19 4.11923)
(7.80714 4.02279e-19 3.9859)
(7.25459 3.2531e-21 4.5889)
(7.56301 4.39578e-21 4.44007)
(6.93874 -5.43156e-19 5.1167)
(7.29288 -2.47673e-19 4.95143)
(6.57738 -5.40717e-19 5.71159)
(6.98901 -2.93876e-19 5.53032)
(6.15308 -5.13185e-19 6.38285)
(6.63913 -7.19713e-21 6.18936)
(5.63838 5.98865e-19 7.13766)
(6.22252 -4.74733e-19 6.94326)
(4.99002 1.05473e-18 7.97566)
(5.70619 1.07879e-18 7.80662)
(4.14256 9.82873e-19 8.87042)
(5.01979 0 8.78899)
(3.00237 -1.2992e-18 9.70701)
(4.10507 9.88644e-19 9.8616)
(2.51081 -2.12038e-18 10.8827)
(9.9898 -3.06582e-21 0.156338)
(9.99504 -2.30331e-24 0.106596)
(9.96994 3.5971e-21 0.259928)
(9.98269 -3.98399e-22 0.212209)
(9.94078 -3.33385e-21 0.364981)
(9.95996 8.12191e-22 0.31855)
(9.90255 -2.90915e-22 0.472923)
(9.92762 -4.1731e-22 0.427141)
(9.85543 9.27199e-21 0.585095)
(9.8867 7.59784e-24 0.53935)
(9.79954 2.35279e-21 0.702818)
(9.83755 1.72472e-21 0.656511)
(9.73498 1.00235e-21 0.827428)
(9.78025 -1.76891e-21 0.779957)
(9.66177 2.5272e-21 0.960302)
(9.7148 3.52159e-21 0.911051)
(9.57989 7.32391e-21 1.10288)
(9.64124 -1.78038e-21 1.05121)
(9.48925 1.25594e-20 1.25668)
(9.55958 5.87821e-21 1.20192)
(9.38976 1.66465e-21 1.42333)
(9.46979 -4.212e-22 1.36476)
(9.28123 -1.72257e-20 1.60457)
(9.37179 -3.76007e-21 1.54142)
(9.16345 4.66376e-22 1.80231)
(9.26548 -1.3359e-20 1.73374)
(9.03613 1.52068e-20 2.01864)
(9.15071 1.52368e-20 1.94372)
(8.89894 -3.28802e-20 2.25589)
(9.0273 0 2.17358)
(8.7514 -4.49185e-21 2.51674)
(8.89501 -3.25815e-20 2.42582)
(8.59295 2.73301e-20 2.80427)
(8.75353 3.89116e-20 2.70333)
(8.42282 1.29818e-19 3.12213)
(8.60247 0 3.00953)
(8.23993 -1.31136e-19 3.4747)
(8.44127 1.43715e-19 3.34844)
(8.04273 -1.34417e-19 3.86744)
(8.26914 -2.71842e-19 3.72508)
(7.82899 1.18971e-19 4.30718)
(8.08493 1.79205e-19 4.14579)
(7.59524 -2.48618e-19 4.80245)
(7.88683 -5.8737e-20 4.61858)
(7.33603 1.17257e-21 5.36415)
(7.67198 -1.91234e-19 5.15381)
(7.04234 2.42679e-19 6.0064)
(7.43563 8.43206e-20 5.76525)
(6.69883 2.64098e-20 6.74767)
(7.1697 1.53572e-19 6.47183)
(6.27854 2.57941e-20 7.61195)
(6.85936 -2.25807e-19 7.30042)
(5.73171 0 8.63024)
(6.47896 8.60256e-20 8.29028)
(4.96271 3.03365e-20 9.83369)
(5.96229 -2.7552e-20 9.5027)
(3.77444 2.85566e-20 11.1982)
(5.22771 1.46309e-19 11.0214)
(3.38376 -1.41882e-19 12.9375)
(9.99064 2.66028e-21 0.16352)
(9.99538 6.33302e-21 0.111169)
(9.97246 -3.1689e-21 0.271873)
(9.9842 -3.50025e-21 0.221309)
(9.94582 3.71429e-21 0.381752)
(9.96358 3.41616e-21 0.332205)
(9.91098 -1.13858e-22 0.49462)
(9.93424 3.06516e-22 0.445423)
(9.86814 -7.51958e-21 0.611837)
(9.89721 -7.00231e-22 0.562352)
(9.81748 -2.43638e-21 0.734747)
(9.85288 -3.49399e-21 0.684344)
(9.75913 8.09455e-22 0.864709)
(9.80136 1.33033e-21 0.812747)
(9.69319 -8.4432e-22 1.00313)
(9.74274 -4.0398e-21 0.948944)
(9.61973 -3.14299e-21 1.15146)
(9.67713 -1.58502e-21 1.09437)
(9.53876 -7.16843e-21 1.31125)
(9.60463 -4.79799e-21 1.25052)
(9.45031 -5.88e-21 1.48415)
(9.52533 -4.12522e-21 1.41899)
(9.35435 9.21444e-24 1.67192)
(9.43931 -3.58022e-21 1.60149)
(9.25086 1.68966e-21 1.87651)
(9.34662 1.86034e-21 1.79985)
(9.13977 -1.16146e-22 2.10003)
(9.24733 3.25435e-21 2.01609)
(9.02102 0 2.34487)
(9.14151 -1.37902e-20 2.25244)
(8.89449 1.14432e-20 2.61375)
(9.02925 1.3781e-20 2.51142)
(8.76005 1.12471e-20 2.90985)
(8.91064 3.22136e-20 2.79595)
(8.61751 1.50472e-20 3.23697)
(8.78581 -2.75925e-20 3.10945)
(8.46654 -9.47065e-23 3.59975)
(8.65489 -2.61087e-20 3.45607)
(8.30666 4.5088e-20 4.00402)
(8.51805 2.59073e-20 3.84096)
(8.13711 -1.7969e-22 4.45726)
(8.37545 1.12939e-19 4.27067)
(7.95657 -2.18075e-21 4.96919)
(8.22724 -8.60597e-20 4.75369)
(7.76271 -1.06394e-19 5.55284)
(8.07348 -8.91631e-20 5.30128)
(7.55125 -5.04955e-21 6.22634)
(7.91398 -6.94197e-20 5.92898)
(7.31427 -1.01417e-19 7.01607)
(7.74825 4.01373e-19 6.65926)
(7.03627 -1.63212e-19 7.96264)
(7.57509 -5.07561e-19 7.52655)
(6.68415 5.66602e-20 9.13564)
(7.39604 2.18571e-19 8.58855)
(6.17669 9.31867e-20 10.6773)
(7.21316 -1.21391e-21 9.95863)
(5.24681 -1.42991e-19 13.1171)
(7.2504 1.90507e-19 11.9255)
(6.49254 -1.97009e-19 16.0165)
(-0.409281 -6.57659e-19 0.29216)
(-0.227243 6.86644e-21 0.379855)
(-1.03302 5.86581e-19 0.384336)
(-0.749997 -6.09112e-19 0.545591)
(-1.80986 7.91904e-19 0.439683)
(-1.49906 1.40865e-18 0.656944)
(-2.69773 -6.41933e-19 0.470965)
(-2.35591 2.57075e-19 0.737953)
(-3.65761 0 0.482026)
(-3.29287 4.81393e-20 0.790378)
(-4.65623 0 0.476769)
(-4.27784 5.69049e-20 0.816978)
(-5.66519 1.37632e-19 0.458185)
(-5.28301 -1.00648e-18 0.820063)
(-6.65915 1.39538e-19 0.428355)
(-6.28338 5.41583e-19 0.801251)
(-7.61391 -6.83306e-20 0.388673)
(-7.25511 -1.16311e-18 0.761539)
(-8.50502 -1.3806e-19 0.340109)
(-8.17418 5.01124e-19 0.701495)
(-9.30696 -1.38535e-19 0.28342)
(-9.01547 -3.29472e-21 0.621542)
(-9.99296 -7.01424e-20 0.219354)
(-9.7523 -2.7084e-21 0.522284)
(-10.5353 0 0.148728)
(-10.3567 -1.36833e-19 0.404845)
(-10.9067 0 0.0723997)
(-10.8001 -6.80881e-20 0.271287)
(-11.0806 0 -0.00880415)
(-11.0546 6.79033e-22 0.124234)
(-11.0354 3.78526e-20 -0.094197)
(-11.0952 6.64332e-20 -0.0315644)
(-10.7546 3.14645e-20 -0.181033)
(-10.9054 2.26987e-20 -0.191094)
(-10.2341 -7.52215e-21 -0.264063)
(-10.4787 -1.87933e-20 -0.345386)
(-9.48475 -1.60501e-20 -0.338353)
(-9.81969 2.31081e-20 -0.484699)
(-8.52961 -1.04907e-20 -0.400218)
(-8.94648 -1.40857e-20 -0.602169)
(-7.40109 2.42117e-21 -0.447222)
(-7.88799 3.53399e-21 -0.693393)
(-6.13809 1.6499e-22 -0.478052)
(-6.68142 -3.61451e-21 -0.756331)
(-4.78305 3.87449e-21 -0.492294)
(-5.3691 6.54973e-21 -0.790963)
(-3.3792 1.65308e-21 -0.49039)
(-3.99484 -2.88819e-21 -0.798894)
(-1.96713 2.14015e-22 -0.474935)
(-2.5977 1.02407e-21 -0.783569)
(-0.569502 -1.57728e-21 -0.445968)
(-1.17764 -1.558e-21 -0.756415)
(0.780796 0 -0.407879)
(0.234335 0 -0.712931)
(2.06615 -9.97502e-24 -0.374245)
(1.50775 0 -0.662198)
(3.31261 -1.02188e-23 -0.369271)
(2.75869 1.16496e-24 -0.626761)
(4.30991 0 -0.659826)
(-0.524356 7.02669e-20 0.743212)
(-0.260324 5.76166e-18 0.919157)
(-1.22746 1.7984e-19 0.922884)
(-0.844207 -5.13663e-18 1.17663)
(-2.04064 8.8547e-19 1.04933)
(-1.6335 0 1.35831)
(-2.93812 9.50425e-19 1.14022)
(-2.4959 3.37684e-18 1.49513)
(-3.89282 1.07168e-19 1.19589)
(-3.42049 1.42497e-19 1.58522)
(-4.87844 -9.39893e-19 1.21808)
(-4.38279 -1.89445e-18 1.62987)
(-5.87044 -6.1225e-19 1.20833)
(-5.36014 -1.0063e-18 1.63103)
(-6.84525 -7.45209e-19 1.16762)
(-6.33056 4.03657e-19 1.59029)
(-7.7793 -6.10387e-19 1.0965)
(-7.27196 -1.81123e-18 1.50863)
(-8.64809 6.40461e-19 0.995304)
(-8.16121 1.3236e-18 1.38666)
(-9.42573 1.3246e-19 0.864515)