/*--------------------------------*- C++ -*----------------------------------*\
| =========                 |                                                 |
| \\      /  F ield         | OpenFOAM: The Open Source CFD Toolbox           |
|  \\    /   O peration     | Version:  2012                                  |
|   \\  /    A nd           | Website:  www.openfoam.com                      |
|    \\/     M anipulation  |                                                 |
\*---------------------------------------------------------------------------*/
FoamFile
{
    version     2.0;
    format      ascii;
    class       volVectorField;
    location    "0.4";
    object      cellDisplacement;
}
// * * * * * * * * * * * * * * * * * * * * * * * * * * * * * * * * * * * * * //

dimensions      [0 1 0 0 0 0 0];


internalField   nonuniform List<vector> 
2790
(
(4.24999e-05 0 1.83299e-07)
(0.000125863 0 5.39338e-07)
(0.000220327 0 9.31891e-07)
(0.00033852 0 1.40632e-06)
(0.000491967 0 2.00172e-06)
(0.000692376 0 2.75498e-06)
(0.00095193 0 3.70251e-06)
(0.00128322 0 4.88182e-06)
(0.00169884 0 6.3336e-06)
(0.00221073 0 8.10549e-06)
(0.00282913 0 1.02584e-05)
(0.00356135 0 1.28768e-05)
(0.00441022 0 1.60842e-05)
(0.00537225 0 2.00642e-05)
(0.00643565 0 2.50884e-05)
(0.00757829 0 3.15496e-05)
(0.00876576 0 3.99977e-05)
(0.00995018 0 5.11778e-05)
(0.0110699 0 6.60773e-05)
(0.01205 0 8.60101e-05)
(0.0128049 0 0.000112654)
(0.013242 0 0.000148142)
(0.01327 0 0.000195201)
(0.012808 0 0.000257381)
(0.011799 0 0.000339402)
(0.0102263 0 0.000447565)
(0.00813438 0 0.000589757)
(0.00566516 0 0.000773061)
(0.00313552 0 0.000987698)
(0.00127109 0 0.00114401)
(4.07324e-05 0 5.43573e-07)
(0.000121103 0 1.6008e-06)
(0.000212743 0 2.76836e-06)
(0.000327683 0 4.18061e-06)
(0.000477278 0 5.95408e-06)
(0.000673134 0 8.19861e-06)
(0.000927403 0 1.10225e-05)
(0.00125273 0 1.45368e-05)
(0.00166187 0 1.88609e-05)
(0.00216705 0 2.41334e-05)
(0.00277902 0 3.05301e-05)
(0.0035058 0 3.82939e-05)
(0.00435121 0 4.77787e-05)
(0.00531315 0 5.95119e-05)
(0.00638161 0 7.42754e-05)
(0.0075367 0 9.32024e-05)
(0.00874671 0 0.000117881)
(0.00996679 0 0.000150456)
(0.011139 0 0.000193738)
(0.0121932 0 0.000251485)
(0.0130484 0 0.000328422)
(0.0136177 0 0.000430441)
(0.0138157 0 0.000564844)
(0.0135684 0 0.000740683)
(0.012828 0 0.000969115)
(0.0115925 0 0.00126323)
(0.0099263 0 0.00163527)
(0.00799956 0 0.00208936)
(0.00615673 0 0.00259914)
(0.00505314 0 0.00304824)
(4.02865e-05 0 8.937e-07)
(0.000120026 0 2.63481e-06)
(0.000211065 0 4.56031e-06)
(0.00032535 0 6.89007e-06)
(0.000474229 0 9.8157e-06)
(0.000669356 0 1.35175e-05)
(0.000923 0 1.81723e-05)
(0.00124801 0 2.39592e-05)
(0.00165747 0 3.10689e-05)
(0.00216413 0 3.97185e-05)
(0.00277947 0 5.01802e-05)
(0.0035126 0 6.28267e-05)
(0.00436884 0 7.82005e-05)
(0.0053481 0 9.71114e-05)
(0.00644311 0 0.000120765)
(0.00763751 0 0.000150917)
(0.00890377 0 0.000190034)
(0.0102018 0 0.000241433)
(0.0114799 0 0.000309326)
(0.0126763 0 0.000399492)
(0.0137187 0 0.000519005)
(0.0145301 0 0.000676444)
(0.015036 0 0.000881997)
(0.0151744 0 0.00114751)
(0.0149096 0 0.00148631)
(0.0142616 0 0.00191243)
(0.0133111 0 0.00243319)
(0.01223 0 0.00303872)
(0.0113092 0 0.0036725)
(0.0109867 0 0.0041648)
(3.99354e-05 0 1.2349e-06)
(0.000119119 0 3.64357e-06)
(0.000209646 0 6.30843e-06)
(0.000323416 0 9.53103e-06)
(0.000471802 0 1.35743e-05)
(0.000666554 0 1.86845e-05)
(0.000920124 0 2.51005e-05)
(0.00124567 0 3.3061e-05)
(0.00165678 0 4.28144e-05)
(0.00216693 0 5.46377e-05)
(0.00278867 0 6.88706e-05)
(0.00353261 0 8.59729e-05)
(0.00440617 0 0.000106612)
(0.00541209 0 0.000131789)
(0.00654693 0 0.000162999)
(0.00779938 0 0.000202438)
(0.00914794 0 0.000253211)
(0.0105567 0 0.000319122)
(0.0119848 0 0.000405657)
(0.0133821 0 0.000519832)
(0.0146876 0 0.000670027)
(0.0158372 0 0.000866075)
(0.0167705 0 0.00111898)
(0.0174404 0 0.00144027)
(0.0178265 0 0.00184208)
(0.0179477 0 0.00233221)
(0.0178948 0 0.00290616)
(0.017803 0 0.00353449)
(0.0178589 0 0.004136)
(0.0182585 0 0.00453542)
(3.96529e-05 0 1.56487e-06)
(0.000118365 0 4.61934e-06)
(0.000208469 0 7.99799e-06)
(0.000321852 0 1.20793e-05)
(0.000469939 0 1.71924e-05)
(0.000664614 0 2.36432e-05)
(0.000918573 0 3.17243e-05)
(0.00124537 0 4.17221e-05)
(0.00165922 0 5.39261e-05)
(0.0021745 0 6.86481e-05)
(0.00280509 0 8.62589e-05)
(0.00356346 0 0.000107252)
(0.00445959 0 0.000132339)
(0.00549968 0 0.000162594)
(0.00668494 0 0.000199633)
(0.00801057 0 0.000245856)
(0.00945866 0 0.000304452)
(0.0110035 0 0.000379598)
(0.0126189 0 0.000477463)
(0.0142632 0 0.000605264)
(0.0158898 0 0.000771655)
(0.0174494 0 0.000986309)
(0.0188964 0 0.00125925)
(0.020197 0 0.00159967)
(0.0213407 0 0.002014)
(0.0223383 0 0.00250184)
(0.0232545 0 0.00304634)
(0.0241574 0 0.00360195)
(0.0250985 0 0.00408103)
(0.0260393 0 0.00434082)
(3.94254e-05 0 1.88134e-06)
(0.000117749 0 5.55481e-06)
(0.000207515 0 9.61528e-06)
(0.000320621 0 1.45124e-05)
(0.000468567 0 2.06354e-05)
(0.000663398 0 2.8342e-05)
(0.000918098 0 3.79687e-05)
(0.00124669 0 4.98358e-05)
(0.00166407 0 6.42543e-05)
(0.00218568 0 8.15428e-05)
(0.00282691 0 0.000102062)
(0.00360233 0 0.000126278)
(0.00452477 0 0.000154861)
(0.0056043 0 0.000188825)
(0.0068471 0 0.000229714)
(0.00825458 0 0.000279828)
(0.00981575 0 0.000342162)
(0.0115186 0 0.0004211)
(0.0133461 0 0.000522385)
(0.0152684 0 0.000652776)
(0.0172547 0 0.000820241)
(0.0192701 0 0.00103307)
(0.0212814 0 0.0012989)
(0.0232627 0 0.00162298)
(0.0252003 0 0.00200573)
(0.0271089 0 0.00243842)
(0.0289754 0 0.00289554)
(0.0307884 0 0.00332702)
(0.0324564 0 0.00365691)
(0.0337482 0 0.00379154)
(3.92451e-05 0 2.18229e-06)
(0.000117259 0 6.44358e-06)
(0.000206762 0 1.11483e-05)
(0.00031968 0 1.68109e-05)
(0.000467601 0 2.38734e-05)
(0.00066275 0 3.2737e-05)
(0.000918418 0 4.37709e-05)
(0.00124912 0 5.73145e-05)
(0.00167052 0 7.36795e-05)
(0.00219916 0 9.31623e-05)
(0.00285205 0 0.000116072)
(0.00364597 0 0.000142787)
(0.00459681 0 0.000173847)
(0.00571864 0 0.00021008)
(0.00702272 0 0.000252775)
(0.00851624 0 0.000303862)
(0.0101994 0 0.00036602)
(0.0120722 0 0.000443188)
(0.0141226 0 0.000540072)
(0.0163363 0 0.000662388)
(0.0186989 0 0.000816701)
(0.0211874 0 0.00100908)
(0.0237785 0 0.00124402)
(0.0264488 0 0.0015224)
(0.0291836 0 0.00183987)
(0.0319548 0 0.00218183)
(0.0346866 0 0.0025197)
(0.0372792 0 0.00280964)
(0.0395057 0 0.00299722)
(0.0409917 0 0.00303551)
(3.91075e-05 0 2.46603e-06)
(0.000116883 0 7.28038e-06)
(0.00020619 0 1.25873e-05)
(0.000318987 0 1.89588e-05)
(0.000466955 0 2.68823e-05)
(0.000662502 0 3.67933e-05)
(0.00091923 0 4.90823e-05)
(0.00125215 0 6.40924e-05)
(0.0016777 0 8.21166e-05)
(0.00221355 0 0.000103401)
(0.00287829 0 0.000128163)
(0.00369097 0 0.000156641)
(0.00467052 0 0.000189163)
(0.00583504 0 0.000226264)
(0.00720101 0 0.000268831)
(0.00878227 0 0.000318253)
(0.0105889 0 0.000376569)
(0.0126283 0 0.000446679)
(0.0149009 0 0.000532186)
(0.0174081 0 0.0006373)
(0.0201442 0 0.000766441)
(0.0230982 0 0.000923199)
(0.0262535 0 0.00110903)
(0.0295859 0 0.00132141)
(0.0330607 0 0.00155179)
(0.0365969 0 0.00178432)
(0.0400769 0 0.00199305)
(0.0433028 0 0.00214579)
(0.0459342 0 0.00221244)
(0.0475021 0 0.00218288)
(3.90098e-05 0 2.73137e-06)
(0.000116616 0 8.06139e-06)
(0.000205783 0 1.39252e-05)
(0.000318503 0 2.09448e-05)
(0.000466547 0 2.96451e-05)
(0.000662494 0 4.04866e-05)
(0.000920243 0 5.387e-05)
(0.00125528 0 7.01285e-05)
(0.00168476 0 8.95173e-05)
(0.00222744 0 0.000112208)
(0.00290343 0 0.000138296)
(0.00373393 0 0.00016783)
(0.00474076 0 0.000200868)
(0.00594586 0 0.00023757)
(0.00737068 0 0.000278304)
(0.00903547 0 0.000323775)
(0.0109586 0 0.000375142)
(0.0131563 0 0.000434109)
(0.0156414 0 0.00050283)
(0.0184243 0 0.000583717)
(0.0215101 0 0.000678986)
(0.0248962 0 0.000789777)
(0.0285684 0 0.000914989)
(0.0324948 0 0.00104986)
(0.0366135 0 0.0011847)
(0.0408115 0 0.00130444)
(0.0449094 0 0.00138971)
(0.0486262 0 0.00142245)
(0.0515338 0 0.00139506)
(0.053109 0 0.00132358)
(3.89515e-05 0 2.9776e-06)
(0.000116454 0 8.78434e-06)
(0.00020553 0 1.51577e-05)
(0.000318199 0 2.27619e-05)
(0.000466308 0 3.21516e-05)
(0.000662585 0 4.38036e-05)
(0.000921191 0 5.81181e-05)
(0.00125803 0 7.54059e-05)
(0.00169092 0 9.58697e-05)
(0.00223955 0 0.000119587)
(0.00292544 0 0.000146507)
(0.0037717 0 0.000176459)
(0.00480275 0 0.00020919)
(0.00604399 0 0.000244428)
(0.00752132 0 0.000281961)
(0.00926067 0 0.000321724)
(0.0112874 0 0.000363883)
(0.0136259 0 0.000408869)
(0.0162984 0 0.000457293)
(0.0193241 0 0.000509748)
(0.0227164 0 0.000566406)
(0.0264787 0 0.000626355)
(0.0305973 0 0.000686755)
(0.0350311 0 0.000741964)
(0.0396955 0 0.000783048)
(0.0444412 0 0.000798417)
(0.0490319 0 0.000776587)
(0.0531167 0 0.000712317)
(0.0562024 0 0.000614781)
(0.0577424 0 0.000516072)
(3.89335e-05 0 3.20456e-06)
(0.000116399 0 9.44865e-06)
(0.000205428 0 1.62835e-05)
(0.000318058 0 2.44084e-05)
(0.000466191 0 3.43994e-05)
(0.00066267 0 4.67418e-05)
(0.000921864 0 6.18262e-05)
(0.00126003 0 7.99311e-05)
(0.0016955 0 0.000101195)
(0.00224879 0 0.00012559)
(0.00294258 0 0.000152902)
(0.00380158 0 0.000182727)
(0.00485242 0 0.000214484)
(0.00612337 0 0.000247451)
(0.00764408 0 0.000280813)
(0.00944517 0 0.000313725)
(0.0115577 0 0.000345353)
(0.0140126 0 0.000374888)
(0.0168394 0 0.000401475)
(0.0200645 0 0.000424066)
(0.0237078 0 0.000441147)
(0.0277767 0 0.000450348)
(0.0322577 0 0.000448025)
(0.0371022 0 0.000428973)
(0.0422076 0 0.000386639)
(0.0473926 0 0.000314368)
(0.0523725 0 0.000208379)
(0.0567355 0 7.28639e-05)
(0.0599332 0 -7.39482e-05)
(0.061412 0 -0.000192479)
(3.89596e-05 0 3.41265e-06)
(0.000116461 0 1.00554e-05)
(0.000205489 0 1.73046e-05)
(0.000318085 0 2.58868e-05)
(0.000466178 0 3.6393e-05)
(0.000662687 0 4.9309e-05)
(0.000922122 0 6.50089e-05)
(0.00126099 0 8.37307e-05)
(0.00169802 0 0.000105542)
(0.00225435 0 0.000130303)
(0.00295352 0 0.000157636)
(0.0038215 0 0.000186899)
(0.0048866 0 0.00021719)
(0.00617933 0 0.00024735)
(0.00773219 0 0.000275994)
(0.00957931 0 0.00030154)
(0.0117561 0 0.000322238)
(0.0142981 0 0.000336171)
(0.0172404 0 0.000341229)
(0.0206143 0 0.000335036)
(0.0244445 0 0.000314859)
(0.0287418 0 0.000277526)
(0.0334932 0 0.000219449)
(0.0386467 0 0.000136911)
(0.0440895 0 2.68197e-05)
(0.0496203 0 -0.000111834)
(0.054919 0 -0.000275701)
(0.0595189 0 -0.00045424)
(0.0628071 0 -0.000626735)
(0.0642126 0 -0.000754466)
(3.90358e-05 0 3.60279e-06)
(0.000116655 0 1.06073e-05)
(0.000205737 0 1.82255e-05)
(0.000318306 0 2.72044e-05)
(0.00046629 0 3.81433e-05)
(0.000662633 0 5.15223e-05)
(0.000921915 0 6.76928e-05)
(0.00126078 0 8.68481e-05)
(0.0016982 0 0.000108982)
(0.0022557 0 0.000133844)
(0.0029574 0 0.000160895)
(0.0038301 0 0.000189276)
(0.00490324 0 0.000217784)
(0.00620882 0 0.00024487)
(0.00778122 0 0.000268641)
(0.00965693 0 0.000286882)
(0.011874 0 0.000297071)
(0.0144712 0 0.000296397)
(0.0174866 0 0.000281781)
(0.0209549 0 0.000249905)
(0.0249035 0 0.000197311)
(0.0293457 0 0.000120614)
(0.0342708 0 1.6926e-05)
(0.0396279 0 -0.000115378)
(0.0453053 0 -0.00027549)
(0.0510998 0 -0.000458647)
(0.0566791 0 -0.000654636)
(0.0615368 0 -0.000847339)
(0.0649735 0 -0.00101611)
(0.0663427 0 -0.00113188)
(3.91712e-05 0 3.77638e-06)
(0.000117008 0 1.11084e-05)
(0.000206212 0 1.90534e-05)
(0.000318773 0 2.83722e-05)
(0.000466587 0 3.96666e-05)
(0.00066257 0 5.34058e-05)
(0.000921291 0 6.99146e-05)
(0.00125941 0 8.9339e-05)
(0.00169599 0 0.0001116)
(0.0022527 0 0.000136343)
(0.00295391 0 0.000162884)
(0.00382683 0 0.000190168)
(0.00490144 0 0.000216737)
(0.00621049 0 0.000240713)
(0.00778927 0 0.000259795)
(0.00967536 0 0.000271267)
(0.011908 0 0.000272025)
(0.0145274 0 0.000258617)
(0.0175727 0 0.000227316)
(0.0210797 0 0.000174264)
(0.0250769 0 9.57307e-05)
(0.0295792 0 -1.14373e-05)
(0.034578 0 -0.000149081)
(0.0400284 0 -0.000316648)
(0.0458294 0 -0.000509774)
(0.0517969 0 -0.000718675)
(0.0576236 0 -0.000926903)
(0.0628091 0 -0.00111186)
(0.066574 0 -0.00125037)
(0.0680709 0 -0.00132883)
(3.93785e-05 0 3.93533e-06)
(0.000117554 0 1.15642e-05)
(0.00020697 0 1.97976e-05)
(0.000319567 0 2.94045e-05)
(0.000467173 0 4.09839e-05)
(0.000662626 0 5.49901e-05)
(0.000920402 0 7.17182e-05)
(0.00125707 0 9.12673e-05)
(0.00169159 0 0.00011349)
(0.00224555 0 0.000137938)
(0.00294327 0 0.000163803)
(0.00381192 0 0.000189869)
(0.00488148 0 0.000214476)
(0.00618467 0 0.000235497)
(0.0077568 0 0.00025033)
(0.00963538 0 0.000255917)
(0.0118595 0 0.000248774)
(0.0144689 0 0.000225073)
(0.017502 0 0.000180764)
(0.0209939 0 0.000111814)
(0.0249718 0 1.45895e-05)
(0.0294503 0 -0.000113538)
(0.0344224 0 -0.0002733)
(0.0398486 0 -0.000462342)
(0.0456429 0 -0.000673835)
(0.0516523 0 -0.000895041)
(0.0576292 0 -0.00110615)
(0.0631617 0 -0.0012798)
(0.0675194 0 -0.00138387)
(0.0696103 0 -0.00140284)
(0.00122094 0 -0.00126932)
(0.00370511 0 -0.00120655)
(0.00708071 0 -0.00103386)
(0.0102972 0 -0.000853721)
(0.0128946 0 -0.000692353)
(0.0147119 0 -0.000553765)
(0.0157487 0 -0.000437347)
(0.0160841 0 -0.000340617)
(0.0158361 0 -0.000261305)
(0.0151324 0 -0.000197145)
(0.014096 0 -0.000145955)
(0.0128387 0 -0.000105709)
(0.0114569 0 -7.45748e-05)
(0.0100304 0 -5.08999e-05)
(0.00862356 0 -3.33369e-05)
(0.00728545 0 -2.06329e-05)
(0.00605094 0 -1.17337e-05)
(0.00494212 0 -5.74065e-06)
(0.0039699 0 -1.90374e-06)
(0.00313625 0 3.83985e-07)
(0.00243637 0 1.59942e-06)
(0.00186061 0 2.10661e-06)
(0.00139618 0 2.17431e-06)
(0.00102857 0 1.99312e-06)
(0.000742692 0 1.69153e-06)
(0.000523681 0 1.35027e-06)
(0.000357364 0 1.01443e-06)
(0.000230365 0 7.03139e-07)
(0.00012985 0 4.16733e-07)
(4.28995e-05 0 1.41726e-07)
(0.00484288 0 -0.00351726)
(0.00686248 0 -0.00329475)
(0.00964229 0 -0.00288404)
(0.0123104 0 -0.00242435)
(0.0144442 0 -0.00198784)
(0.0158837 0 -0.00160084)
(0.016618 0 -0.00127049)
(0.016712 0 -0.000992662)
(0.0162754 0 -0.000763217)
(0.0154269 0 -0.000576711)
(0.0142814 0 -0.00042739)
(0.0129437 0 -0.000309699)
(0.0115045 0 -0.000218504)
(0.0100381 0 -0.00014902)
(0.00860513 0 -9.74765e-05)
(0.00725127 0 -6.01745e-05)
(0.00600871 0 -3.4053e-05)
(0.00489744 0 -1.64778e-05)
(0.00392651 0 -5.24515e-06)
(0.00309644 0 1.4307e-06)
(0.00240138 0 4.9542e-06)
(0.00183092 0 6.39803e-06)
(0.00137175 0 6.5542e-06)
(0.00100904 0 5.98423e-06)
(0.000727532 0 5.06633e-06)
(0.000512309 0 4.03763e-06)
(0.000349226 0 3.03006e-06)
(0.000225008 0 2.09888e-06)
(0.000126958 0 1.24386e-06)
(4.21923e-05 0 4.23561e-07)
(0.010572 0 -0.00519268)
(0.0122092 0 -0.00491596)
(0.0142316 0 -0.00436968)
(0.0160721 0 -0.00372401)
(0.0174489 0 -0.00308609)
(0.0182472 0 -0.00250557)
(0.0184456 0 -0.00199904)
(0.0181087 0 -0.00156919)
(0.0173307 0 -0.00121088)
(0.0162144 0 -0.000917542)
(0.0148612 0 -0.000681361)
(0.0133645 0 -0.000494387)
(0.0118062 0 -0.000349099)
(0.0102509 0 -0.000238273)
(0.00875148 0 -0.000155645)
(0.00734951 0 -9.57276e-05)
(0.00607278 0 -5.37703e-05)
(0.0049381 0 -2.55644e-05)
(0.00395151 0 -7.5734e-06)
(0.00311122 0 3.07389e-06)
(0.00240969 0 8.64079e-06)
(0.00183528 0 1.08591e-05)
(0.00137382 0 1.10089e-05)
(0.00100986 0 9.99822e-06)
(0.000727743 0 8.43842e-06)
(0.000512272 0 6.71216e-06)
(0.000349141 0 5.03131e-06)
(0.000224973 0 3.48313e-06)
(0.000126994 0 2.06439e-06)
(4.22236e-05 0 7.03928e-07)
(0.0177002 0 -0.0063265)
(0.0189089 0 -0.00603212)
(0.0201051 0 -0.00542929)
(0.020992 0 -0.0046854)
(0.0214503 0 -0.00392462)
(0.0214325 0 -0.00321484)
(0.0209392 0 -0.00258342)
(0.0200368 0 -0.00203959)
(0.0188026 0 -0.0015815)
(0.0173236 0 -0.00120306)
(0.0156858 0 -0.000896029)
(0.0139686 0 -0.000651423)
(0.0122414 0 -0.000460347)
(0.0105609 0 -0.000314296)
(0.00897009 0 -0.000205092)
(0.00749991 0 -0.000125641)
(0.00617289 0 -6.98435e-05)
(0.00500361 0 -3.2365e-05)
(0.00399345 0 -8.51212e-06)
(0.00313741 0 5.53027e-06)
(0.0024256 0 1.2781e-05)
(0.00184466 0 1.55575e-05)
(0.00137917 0 1.55768e-05)
(0.00101282 0 1.40582e-05)
(0.000729326 0 1.18233e-05)
(0.000513109 0 9.38528e-06)
(0.000349598 0 7.02694e-06)
(0.000225248 0 4.86226e-06)
(0.000127172 0 2.88203e-06)
(4.22939e-05 0 9.8358e-07)
(0.0254266 0 -0.00698821)
(0.0262027 0 -0.00669171)
(0.0265952 0 -0.00608032)
(0.0265246 0 -0.00530354)
(0.0260244 0 -0.00448844)
(0.0251181 0 -0.00370923)
(0.0238705 0 -0.00300552)
(0.0223304 0 -0.00238926)
(0.020572 0 -0.00186327)
(0.0186693 0 -0.00142392)
(0.0166947 0 -0.00106417)
(0.0147131 0 -0.00077534)
(0.0127822 0 -0.000548322)
(0.0109474 0 -0.00037396)
(0.00924237 0 -0.000243288)
(0.00768901 0 -0.000148119)
(0.00630122 0 -8.11317e-05)
(0.005089 0 -3.61484e-05)
(0.00404912 0 -7.60229e-06)
(0.00317295 0 9.07852e-06)
(0.0024478 0 1.75368e-05)
(0.00185823 0 2.05822e-05)
(0.0013873 0 2.03028e-05)
(0.0010176 0 1.81843e-05)
(0.000732111 0 1.52276e-05)
(0.000514727 0 1.20574e-05)
(0.000350549 0 9.01494e-06)
(0.000225817 0 6.23376e-06)
(0.000127497 0 3.69476e-06)
(4.24085e-05 0 1.26166e-06)
(0.0331573 0 -0.00726178)
(0.0335133 0 -0.00696853)
(0.0331696 0 -0.00637616)
(0.0322089 0 -0.00561141)
(0.0307982 0 -0.00479524)
(0.0290314 0 -0.00399901)
(0.027012 0 -0.00326614)
(0.0248143 0 -0.00261534)
(0.0225079 0 -0.00205206)
(0.0201546 0 -0.00157588)
(0.017817 0 -0.00118198)
(0.0155467 0 -0.000862923)
(0.0133913 0 -0.000610452)
(0.0113865 0 -0.000415658)
(0.00955267 0 -0.0002691)
(0.00790392 0 -0.00016212)
(0.00644894 0 -8.6908e-05)
(0.00518833 0 -3.64303e-05)
(0.00411458 0 -4.5339e-06)
(0.00321526 0 1.39083e-05)
(0.00247464 0 2.30182e-05)
(0.00187497 0 2.59926e-05)
(0.00139758 0 2.5216e-05)
(0.00102385 0 2.23881e-05)
(0.000735879 0 1.86544e-05)
(0.000517004 0 1.47274e-05)
(0.000351933 0 1.09928e-05)
(0.000226653 0 7.59519e-06)
(0.000127964 0 4.5008e-06)
(4.25681e-05 0 1.53745e-06)
(0.040475 0 -0.00720949)
(0.0404333 0 -0.00693144)
(0.0394404 0 -0.00637993)
(0.037692 0 -0.00565917)
(0.0354638 0 -0.00487935)
(0.0329194 0 -0.00410704)
(0.0301762 0 -0.00338205)
(0.0273389 0 -0.00272662)
(0.0244868 0 -0.00215187)
(0.0216851 0 -0.00166065)
(0.0189831 0 -0.00124994)
(0.0164208 0 -0.000914137)
(0.0140327 0 -0.000646242)
(0.0118486 0 -0.000438531)
(0.00988095 0 -0.000281873)
(0.00813347 0 -0.000167363)
(0.00660711 0 -8.68828e-05)
(0.00529529 0 -3.29915e-05)
(0.00418557 0 8.39704e-07)
(0.00326155 0 2.01099e-05)
(0.00250433 0 2.92761e-05)
(0.00189374 0 3.18142e-05)
(0.00140931 0 3.03265e-05)
(0.00103112 0 2.66716e-05)
(0.000740387 0 2.21015e-05)
(0.000519806 0 1.73919e-05)
(0.00035368 0 1.29572e-05)
(0.000227725 0 8.94388e-06)
(0.000128562 0 5.2984e-06)
(4.27708e-05 0 1.81029e-06)
(0.0470853 0 -0.00689383)
(0.0466899 0 -0.00664941)
(0.0451472 0 -0.00615853)
(0.0427283 0 -0.00550476)
(0.0397944 0 -0.00478669)
(0.0365633 0 -0.00406408)
(0.0331839 0 -0.00337401)
(0.0297711 0 -0.00273961)
(0.0264116 0 -0.00217438)
(0.0231807 0 -0.00168476)
(0.020125 0 -0.00127114)
(0.0172807 0 -0.00093041)
(0.0146696 0 -0.000656867)
(0.0123106 0 -0.000443519)
(0.0102096 0 -0.000282079)
(0.00836411 0 -0.000164015)
(0.00676642 0 -8.1134e-05)
(0.00540345 0 -2.58639e-05)
(0.00425775 0 8.50422e-06)
(0.00330895 0 2.76736e-05)
(0.00253501 0 3.63007e-05)
(0.00191337 0 3.80366e-05)
(0.00142177 0 3.56242e-05)
(0.00103901 0 3.10255e-05)
(0.000745388 0 2.55612e-05)
(0.000522997 0 2.00448e-05)
(0.00035572 0 1.49038e-05)
(0.000229 0 1.02768e-05)
(0.000129281 0 6.08577e-06)
(4.30143e-05 0 2.07958e-06)
(0.0527942 0 -0.00639155)
(0.0521171 0 -0.00619618)
(0.0501333 0 -0.00578055)
(0.0471646 0 -0.00520828)
(0.0436418 0 -0.00456672)
(0.0398266 0 -0.00390909)
(0.0358959 0 -0.00326974)
(0.0319807 0 -0.00267212)
(0.0281792 0 -0.0021317)
(0.0245653 0 -0.00165736)
(0.021189 0 -0.00125249)
(0.0180828 0 -0.000916265)
(0.0152651 0 -0.000644798)
(0.0127446 0 -0.000432091)
(0.0105202 0 -0.000270735)
(0.00858275 0 -0.000152716)
(0.00691787 0 -7.00704e-05)
(0.00550665 0 -1.53046e-05)
(0.00432698 0 1.82974e-05)
(0.00335471 0 3.64954e-05)
(0.00256491 0 4.40242e-05)
(0.00193273 0 4.46149e-05)
(0.00143427 0 4.10788e-05)
(0.00104709 0 3.54296e-05)
(0.000750649 0 2.90199e-05)
(0.000526451 0 2.26773e-05)
(0.000357989 0 1.68269e-05)
(0.000230452 0 1.15906e-05)
(0.000130111 0 6.86108e-06)
(4.32963e-05 0 2.34468e-06)
(0.0575166 0 -0.0057822)
(0.0566426 0 -0.00564596)
(0.0543265 0 -0.00531331)
(0.050922 0 -0.00482805)
(0.0469201 0 -0.0042677)
(0.0426219 0 -0.00368049)
(0.0382296 0 -0.00309876)
(0.0338905 0 -0.00254607)
(0.0297123 0 -0.00203925)
(0.0257721 0 -0.00158913)
(0.0221209 0 -0.00120131)
(0.018789 0 -0.000876923)
(0.0157909 0 -0.000613652)
(0.0131292 0 -0.000406654)
(0.0107964 0 -0.000249403)
(0.00877778 0 -0.000134504)
(0.00705337 0 -5.43766e-05)
(0.00559934 0 -1.76018e-06)
(0.00438948 0 2.993e-05)
(0.00339636 0 4.63889e-05)
(0.00259242 0 5.23271e-05)
(0.00195084 0 5.14725e-05)
(0.0014462 0 4.66419e-05)
(0.00105501 0 3.98533e-05)
(0.000755972 0 3.24587e-05)
(0.000530064 0 2.5278e-05)
(0.00036044 0 1.87197e-05)
(0.00023206 0 1.28815e-05)
(0.000131045 0 7.6224e-06)
(4.36159e-05 0 2.60499e-06)
(0.0612552 0 -0.00514865)
(0.060272 0 -0.0050739)
(0.0577213 0 -0.00482173)
(0.0539769 0 -0.0044181)
(0.0495892 0 -0.00393349)
(0.0448985 0 -0.00341315)
(0.0401306 0 -0.00288821)
(0.035447 0 -0.00238217)
(0.0309632 0 -0.00191254)
(0.0267586 0 -0.0014914)
(0.0228845 0 -0.00112574)
(0.0193693 0 -0.000818135)
(0.016224 0 -0.00056751)
(0.0134465 0 -0.000370043)
(0.0110249 0 -0.000220028)
(0.00893956 0 -0.000110702)
(0.00716612 0 -3.49448e-05)
(0.00567682 0 1.4175e-05)
(0.00444209 0 4.30112e-05)
(0.00343179 0 5.71004e-05)
(0.0026162 0 6.10464e-05)
(0.00196683 0 5.85065e-05)
(0.00145706 0 5.2249e-05)
(0.00106249 0 4.42571e-05)
(0.000761202 0 3.58541e-05)
(0.000533763 0 2.7833e-05)
(0.000363043 0 2.05746e-05)
(0.000233818 0 1.41453e-05)
(0.000132086 0 8.36776e-06)
(4.39745e-05 0 2.85991e-06)
(0.0641036 0 -0.00457814)
(0.0630844 0 -0.0045544)
(0.0603639 0 -0.00436488)
(0.0563418 0 -0.00402454)
(0.0516363 0 -0.00360027)
(0.0466283 0 -0.00313569)
(0.0415642 0 -0.00266075)
(0.0366144 0 -0.0021982)
(0.0318979 0 -0.00176538)
(0.0274945 0 -0.00137464)
(0.0234538 0 -0.00103363)
(0.0198019 0 -0.000745698)
(0.016547 0 -0.000510603)
(0.0136835 0 -0.000325295)
(0.0111957 0 -0.000184755)
(0.00906076 0 -8.28058e-05)
(0.00725091 0 -1.28026e-05)
(0.00573547 0 3.18059e-05)
(0.00448237 0 5.70786e-05)
(0.0034594 0 6.8327e-05)
(0.00263522 0 6.99873e-05)
(0.0019801 0 6.55935e-05)
(0.00146648 0 5.78239e-05)
(0.00106932 0 4.85949e-05)
(0.000766249 0 3.91789e-05)
(0.000537514 0 3.0327e-05)
(0.000365793 0 2.23832e-05)
(0.000235733 0 1.53779e-05)
(0.000133241 0 9.09522e-06)
(4.43758e-05 0 3.10888e-06)
(0.0662617 0 -0.0041489)
(0.0652253 0 -0.0041476)
(0.0623259 0 -0.00398549)
(0.0580378 0 -0.00367872)
(0.0530543 0 -0.00329245)
(0.0477917 0 -0.00286801)
(0.0425065 0 -0.0024329)
(0.0373691 0 -0.00200788)
(0.0324951 0 -0.00160897)
(0.0279607 0 -0.00124786)
(0.0238124 0 -0.00093203)
(0.0200733 0 -0.000665033)
(0.016749 0 -0.00044702)
(0.0138314 0 -0.000275434)
(0.0113023 0 -0.000145778)
(0.00913654 0 -5.23767e-05)
(0.00730426 0 1.09584e-05)
(0.00577288 0 5.03836e-05)
(0.00450869 0 7.16279e-05)
(0.00347814 0 7.97361e-05)
(0.00264884 0 7.89348e-05)
(0.00199027 0 7.25977e-05)
(0.00147428 0 6.32826e-05)
(0.00107544 0 5.28164e-05)
(0.000771092 0 4.24039e-05)
(0.000541329 0 3.27439e-05)
(0.000368716 0 2.41371e-05)
(0.000237831 0 1.6575e-05)
(0.00013453 0 9.80301e-06)
(4.48272e-05 0 3.35139e-06)
(0.0680082 0 -0.00389543)
(0.0668373 0 -0.00387356)
(0.0636323 0 -0.00369412)
(0.0590447 0 -0.00338912)
(0.0538142 0 -0.00301893)
(0.0483634 0 -0.00261963)
(0.0429383 0 -0.00221432)
(0.0376965 0 -0.0018204)
(0.0327435 0 -0.0014516)
(0.0281485 0 -0.00111819)
(0.0239531 0 -0.000826873)
(0.0201775 0 -0.00058091)
(0.0168252 0 -0.000380491)
(0.0138864 0 -0.000223302)
(0.0113416 0 -0.00010521)
(0.00916465 0 -2.0951e-05)
(0.00732457 0 3.52463e-05)
(0.00578795 0 6.9149e-05)
(0.00452034 0 8.6143e-05)
(0.00348759 0 9.09843e-05)
(0.00265685 0 8.76658e-05)
(0.00199725 0 7.93777e-05)
(0.00148045 0 6.85383e-05)
(0.00108087 0 5.68699e-05)
(0.000775791 0 4.54995e-05)
(0.000545273 0 3.50675e-05)
(0.00037187 0 2.58281e-05)
(0.000240157 0 1.77331e-05)
(0.000135983 0 1.04896e-05)
(4.53395e-05 0 3.58708e-06)
(0.0695643 0 -0.00378233)
(0.0678511 0 -0.00368897)
(0.0641248 0 -0.00345799)
(0.0592359 0 -0.00313749)
(0.0538408 0 -0.00277263)
(0.0483053 0 -0.0023903)
(0.0428432 0 -0.00200839)
(0.0375914 0 -0.00164079)
(0.0326431 0 -0.00129878)
(0.0280595 0 -0.000990932)
(0.0238779 0 -0.000722881)
(0.0201162 0 -0.000497323)
(0.0167767 0 -0.00031426)
(0.0138492 0 -0.000171448)
(0.0113142 0 -6.49919e-05)
(0.0091454 0 1.00339e-05)
(0.00731206 0 5.90237e-05)
(0.00578089 0 8.73716e-05)
(0.00451755 0 0.000100122)
(0.00348797 0 0.000101736)
(0.00265944 0 9.59615e-05)
(0.00200125 0 8.5795e-05)
(0.00148517 0 7.35059e-05)
(0.00108578 0 6.0705e-05)
(0.000780491 0 4.84376e-05)
(0.000549465 0 3.7283e-05)
(0.000375349 0 2.7449e-05)
(0.00024278 0 1.88489e-05)
(0.00013764 0 1.11539e-05)
(4.59277e-05 0 3.8157e-06)
(3.968e-05 0 4.08471e-06)
(0.000118351 0 1.1989e-05)
(0.000208101 0 2.04817e-05)
(0.000320807 0 3.0335e-05)
(0.000468199 0 4.21403e-05)
(0.000662977 0 5.63334e-05)
(0.00091945 0 7.31779e-05)
(0.00125397 0 9.27266e-05)
(0.00168523 0 0.00011477)
(0.0022345 0 0.000138777)
(0.00292576 0 0.000163838)
(0.0037857 0 0.000188616)
(0.00484377 0 0.000211301)
(0.00613199 0 0.000229599)
(0.00768478 0 0.000240724)
(0.00953852 0 0.000241422)
(0.0117308 0 0.000228033)
(0.0142994 0 0.000196593)
(0.0172805 0 0.000143017)
(0.0207058 0 6.34054e-05)
(0.0245993 0 -4.55014e-05)
(0.0289725 0 -0.000185649)
(0.0338165 0 -0.000356766)
(0.0390932 0 -0.000555285)
(0.0447242 0 -0.00077335)
(0.0505746 0 -0.000998172)
(0.056443 0 -0.00121273)
(0.0620148 0 -0.00139902)
(0.066789 0 -0.0015485)
(0.0694418 0 -0.00166005)
(3.99887e-05 0 4.22011e-06)
(0.000119159 0 1.23714e-05)
(0.000209198 0 2.10882e-05)
(0.000321882 0 3.11406e-05)
(0.000468787 0 4.31086e-05)
(0.00066241 0 5.74066e-05)
(0.000916782 0 7.42665e-05)
(0.0012479 0 9.36981e-05)
(0.00167401 0 0.000115438)
(0.00221581 0 0.000138889)
(0.00289658 0 0.000163069)
(0.00374216 0 0.000186557)
(0.00478086 0 0.000207459)
(0.00604333 0 0.000223396)
(0.00756224 0 0.000231509)
(0.00937177 0 0.000228502)
(0.0115068 0 0.000210717)
(0.0140017 0 0.000174277)
(0.0168885 0 0.000115298)
(0.0201938 0 3.02461e-05)
(0.0239354 0 -8.358e-05)
(0.0281188 0 -0.000227407)
(0.0327293 0 -0.000400181)
(0.0377223 0 -0.000597707)
(0.0430194 0 -0.000812286)
(0.0484778 0 -0.00103261)
(0.0539147 0 -0.00124607)
(0.0590802 0 -0.00144259)
(0.0635664 0 -0.00162087)
(0.066649 0 -0.00180681)
(4.02387e-05 0 4.33618e-06)
(0.000119783 0 1.26964e-05)
(0.00020993 0 2.15937e-05)
(0.000322299 0 3.17907e-05)
(0.000468252 0 4.38527e-05)
(0.000659996 0 5.81718e-05)
(0.000911179 0 7.49495e-05)
(0.00123729 0 9.41583e-05)
(0.00165594 0 0.000115492)
(0.00218699 0 0.000138309)
(0.00285271 0 0.000161583)
(0.00367771 0 0.000183857)
(0.00468866 0 0.000203213)
(0.00591414 0 0.000217267)
(0.00738434 0 0.000223199)
(0.0091303 0 0.000217799)
(0.0111831 0 0.000197575)
(0.0135725 0 0.000158905)
(0.0163255 0 9.82772e-05)
(0.0194613 0 1.26728e-05)
(0.0229897 0 -9.99642e-05)
(0.0269076 0 -0.00024019)
(0.0311936 0 -0.000406464)
(0.0357881 0 -0.000594277)
(0.0406155 0 -0.000796981)
(0.0455314 0 -0.00100496)
(0.05032 0 -0.00120773)
(0.0547395 0 -0.001399)
(0.0584905 0 -0.00158068)
(0.061023 0 -0.00177489)
(4.03881e-05 0 4.43013e-06)
(0.0001201 0 1.29564e-05)
(0.000210087 0 2.19863e-05)
(0.000321748 0 3.22706e-05)
(0.000466162 0 4.43569e-05)
(0.000655159 0 5.86147e-05)
(0.000901891 0 7.52179e-05)
(0.0012212 0 9.41093e-05)
(0.00162985 0 0.000114953)
(0.00214665 0 0.000137083)
(0.00279253 0 0.00015946)
(0.00359062 0 0.000180639)
(0.00456545 0 0.00019873)
(0.00574296 0 0.000211425)
(0.0071502 0 0.000216028)
(0.00881438 0 0.000209531)
(0.0107618 0 0.000188725)
(0.0130168 0 0.000150379)
(0.0156018 0 9.14403e-05)
(0.0185265 0 9.472e-06)
(0.021791 0 -9.68936e-05)
(0.0253817 0 -0.000227583)
(0.0292745 0 -0.00038097)
(0.0334068 0 -0.000552735)
(0.0376743 0 -0.000736053)
(0.0419457 0 -0.000922989)
(0.0460232 0 -0.00110517)
(0.0496655 0 -0.00127673)
(0.0525826 0 -0.00143633)
(0.0543283 0 -0.00158957)
(4.03944e-05 0 4.4991e-06)
(0.000119988 0 1.31435e-05)
(0.000209461 0 2.22543e-05)
(0.000319926 0 3.25658e-05)
(0.000462103 0 4.46061e-05)
(0.000647361 0 5.8722e-05)
(0.000888245 0 7.50642e-05)
(0.00119881 0 9.35533e-05)
(0.0015948 0 0.000113838)
(0.00209372 0 0.000135247)
(0.00271487 0 0.000156759)
(0.00347987 0 0.000176985)
(0.00441065 0 0.000194114)
(0.00552993 0 0.000205966)
(0.00686128 0 0.000210051)
(0.00842758 0 0.000203639)
(0.0102497 0 0.000183893)
(0.0123446 0 0.000148072)
(0.0147309 0 9.35848e-05)
(0.0174134 0 1.85625e-05)
(0.0203792 0 -7.76826e-05)
(0.023609 0 -0.000194688)
(0.0270636 0 -0.000330319)
(0.03068 0 -0.000480519)
(0.034358 0 -0.000639308)
(0.0379654 0 -0.000799582)
(0.0413249 0 -0.000953919)
(0.0442176 0 -0.00109594)
(0.0463846 0 -0.00122081)
(0.0475051 0 -0.0013247)
(4.02197e-05 0 4.54057e-06)
(0.000119338 0 1.32509e-05)
(0.000207871 0 2.23876e-05)
(0.000316576 0 3.26645e-05)
(0.000455741 0 4.45882e-05)
(0.000636186 0 5.84844e-05)
(0.000869749 0 7.44844e-05)
(0.00116957 0 9.24954e-05)
(0.00155025 0 0.000112163)
(0.00202777 0 0.000132833)
(0.00261919 0 0.000153511)
(0.00334475 0 0.000172916)
(0.00422418 0 0.000189371)
(0.00527585 0 0.000200852)
(0.00651992 0 0.000205129)
(0.0079749 0 0.000199799)
(0.00965676 0 0.000182432)
(0.0115776 0 0.000150736)
(0.0137448 0 0.00010276)
(0.016158 0 3.72336e-05)
(0.0188016 0 -4.61581e-05)
(0.0216482 0 -0.000146546)
(0.0246527 0 -0.000261625)
(0.0277484 0 -0.000387538)
(0.0308404 0 -0.000518941)
(0.033806 0 -0.000649472)
(0.036491 0 -0.000772318)
(0.038712 0 -0.000880856)
(0.0402648 0 -0.000968767)
(0.0409374 0 -0.00102958)
(3.98305e-05 0 4.55248e-06)
(0.000118053 0 1.32732e-05)
(0.000205159 0 2.23781e-05)
(0.000311476 0 3.25569e-05)
(0.000446786 0 4.42935e-05)
(0.000621281 0 5.78936e-05)
(0.000845999 0 7.34735e-05)
(0.00113308 0 9.09354e-05)
(0.00149584 0 0.000109936)
(0.00194877 0 0.000129854)
(0.00250737 0 0.000149771)
(0.00318842 0 0.000168476)
(0.00400894 0 0.000184467)