/*--------------------------------*- C++ -*----------------------------------*\
| =========                 |                                                 |
| \\      /  F ield         | OpenFOAM: The Open Source CFD Toolbox           |
|  \\    /   O peration     | Version:  2012                                  |
|   \\  /    A nd           | Website:  www.openfoam.com                      |
|    \\/     M anipulation  |                                                 |
\*---------------------------------------------------------------------------*/
FoamFile
{
    version     2.0;
    format      ascii;
    class       volVectorField;
    location    "0.4";
    object      Force;
}
// * * * * * * * * * * * * * * * * * * * * * * * * * * * * * * * * * * * * * //

dimensions      [1 1 -2 0 0 0 0];


internalField   uniform (0 0 0);

boundaryField
{
    inlet
    {
        type            calculated;
        value           uniform (0 0 0);
    }
    outlet
    {
        type            calculated;
        value           uniform (0 0 0);
    }
    flap
    {
        type            calculated;
        value           nonuniform List<vector> 
33
(
(2.20583 7.19741e-19 -0.078524)
(2.1829 1.70366e-18 -0.155055)
(2.14754 -1.6721e-18 -0.209919)
(2.10542 -1.18879e-18 -0.233309)
(2.06148 4.20446e-21 -0.235464)
(2.01404 -2.43669e-19 -0.222396)
(1.96147 -1.6054e-18 -0.197124)
(1.90244 0 -0.164645)
(1.83234 -4.4109e-23 -0.129578)
(1.74538 -1.59438e-18 -0.0957078)
(1.63249 6.92702e-23 -0.0661441)
(1.47928 -1.60081e-18 -0.0414119)
(1.2575 1.39313e-18 -0.0228542)
(0.90248 1.83671e-40 -0.0102975)
(0.241883 -4.04919e-20 0.00361797)
(0.0364619 8.03651e-19 1.76672)
(0.0278922 8.02479e-19 1.5611)
(0.0225123 -2.38909e-21 1.26057)
(1.82243 -6.38539e-19 -0.0669902)
(1.8388 1.55938e-18 -0.131586)
(1.86082 3.06415e-19 -0.182685)
(1.89018 -1.61451e-18 -0.209718)
(1.9283 -2.62289e-18 -0.220291)
(1.97868 -2.67421e-18 -0.218164)
(2.04183 -3.37069e-21 -0.204778)
(2.11343 -1.66783e-18 -0.182671)
(2.18727 1.46838e-18 -0.154779)
(2.25381 -1.66958e-18 -0.124479)
(2.30271 -1.74487e-39 -0.0952532)
(2.32338 1.66179e-18 -0.0686443)
(2.30671 1.2665e-18 -0.0485186)
(2.25139 3.78696e-19 -0.0387943)
(2.16341 1.29454e-18 -0.0342211)
)
;
    }
    upperWall
    {
        type            calculated;
        value           uniform (0 0 0);
    }
    lowerWall
    {
        type            calculated;
        value           uniform (0 0 0);
    }
    frontAndBack
    {
        type            empty;
    }
}


// ************************************************************************* //
