/*--------------------------------*- C++ -*----------------------------------*\
| =========                 |                                                 |
| \\      /  F ield         | OpenFOAM: The Open Source CFD Toolbox           |
|  \\    /   O peration     | Version:  2012                                  |
|   \\  /    A nd           | Website:  www.openfoam.com                      |
|    \\/     M anipulation  |                                                 |
\*---------------------------------------------------------------------------*/
FoamFile
{
    version     2.0;
    format      ascii;
    class       surfaceScalarField;
    location    "0.4";
    object      meshPhi;
}
// * * * * * * * * * * * * * * * * * * * * * * * * * * * * * * * * * * * * * //

dimensions      [0 3 -1 0 0 0 0];
oriented        oriented;


internalField   nonuniform List<scalar> 
5457
(
2.37174e-05
1.39812e-07
4.77569e-05
4.02096e-07
7.46578e-05
6.42281e-07
0.000106595
8.68032e-07
0.000145333
1.0797e-06
0.00019234
1.2708e-06
0.000248784
1.43017e-06
0.000315482
1.54482e-06
0.000392815
1.60384e-06
0.000480628
1.60311e-06
0.000578115
1.55071e-06
0.00068371
1.47192e-06
0.00079499
1.41274e-06
0.000908595
1.43964e-06
0.00102019
1.63331e-06
0.00112447
2.07355e-06
0.00121536
2.81209e-06
0.00128665
3.82562e-06
0.00133274
5.07001e-06
0.00134828
6.53409e-06
0.00132861
8.18742e-06
0.00127088
1.00751e-05
0.00117443
1.24982e-05
0.00104162
1.6149e-05
0.000878757
2.21988e-05
0.000696197
3.21725e-05
0.000508138
4.75062e-05
0.000333387
6.87665e-05
0.000201965
9.39619e-05
0.00012007
2.33395e-05
2.7844e-07
4.70696e-05
8.01045e-07
7.36847e-05
1.28019e-06
0.000105332
1.73112e-06
0.000143778
2.15439e-06
0.000190503
2.53682e-06
0.000246699
2.85558e-06
0.000313214
3.08394e-06
0.000390478
3.19883e-06
0.000478393
3.19038e-06
0.000576228
3.07253e-06
0.000682509
2.89343e-06
0.000794928
2.74276e-06
0.000910262
2.7522e-06
0.00102433
3.08432e-06
0.00113197
3.90573e-06
0.00122699
5.34084e-06
0.00130306
7.30995e-06
0.00135519
9.69287e-06
0.00137834
1.25135e-05
0.00136756
1.56806e-05
0.00132004
1.91587e-05
0.00123498
2.33754e-05
0.00111461
2.9461e-05
0.000965781
3.94529e-05
0.000800241
5.60034e-05
0.000634195
8.13322e-05
0.000489404
0.000115658
0.000397622
0.000154773
0.000189501
2.30643e-05
4.14981e-07
4.65768e-05
1.19413e-06
7.29982e-05
1.90895e-06
0.000104461
2.58192e-06
0.000142744
3.21344e-06
0.000189349
3.78317e-06
0.000245504
4.25598e-06
0.000312116
4.5903e-06
0.000389685
4.74927e-06
0.000478214
4.71472e-06
0.000577096
4.50305e-06
0.000685019
4.18082e-06
0.000799876
3.87632e-06
0.000918696
3.78169e-06
0.0010376
4.13874e-06
0.00115178
5.20403e-06
0.00125428
7.10892e-06
0.00133886
9.75184e-06
0.00140251
1.31006e-05
0.00144011
1.7156e-05
0.00144604
2.16122e-05
0.00141763
2.62345e-05
0.00135405
3.13321e-05
0.0012575
3.81123e-05
0.00113538
4.90049e-05
0.00100142
6.71601e-05
0.000874471
9.49093e-05
0.000778422
0.000131513
0.000742859
0.000170241
0.00020257
2.29429e-05
5.48442e-07
4.63667e-05
1.57829e-06
7.27211e-05
2.52308e-06
0.000104144
3.41191e-06
0.000142431
4.24449e-06
0.000189118
4.99274e-06
0.000245486
5.60846e-06
0.00031251
6.03402e-06
0.000390791
6.2168e-06
0.000480463
6.1273e-06
0.000581089
5.77981e-06
0.000691575
5.25296e-06
0.00081009
4.70558e-06
0.000934015
4.38121e-06
0.0010599
4.59202e-06
0.00118312
5.65833e-06
0.00129566
7.66377e-06
0.00139298
1.06383e-05
0.00147369
1.47606e-05
0.00153165
1.9821e-05
0.00156124
2.52396e-05
0.00155981
3.05589e-05
0.00152649
3.57512e-05
0.00146372
4.17167e-05
0.00137854
5.06352e-05
0.00128571
6.54159e-05
0.00120577
8.78775e-05
0.00116241
0.000116058
0.00117948
0.000141967
0.00015817
2.28476e-05
6.77698e-07
4.62018e-05
1.95017e-06
7.25126e-05
3.11689e-06
0.000103928
4.2128e-06
0.000142269
5.23623e-06
0.000189115
6.15074e-06
0.000245807
6.89415e-06
0.000313414
7.39142e-06
0.000392658
7.57196e-06
0.000483836
7.39134e-06
0.000586725
6.85626e-06
0.0007005
6.04946e-06
0.000823666
5.14967e-06
0.000954042
4.4395e-06
0.00108882
4.29583e-06
0.00122256
5.05487e-06
0.00134784
6.85465e-06
0.00146347
9.94628e-06
0.00156614
1.4517e-05
0.00164914
2.01701e-05
0.0017088
2.62452e-05
0.00174136
3.20424e-05
0.00174571
3.708e-05
0.00172381
4.16912e-05
0.00168222
4.73888e-05
0.00163415
5.64663e-05
0.00159765
7.01794e-05
0.00159407
8.59309e-05
0.00164233
9.5838e-05
8.85932e-05
2.27747e-05
8.01682e-07
4.60781e-05
2.30661e-06
7.23663e-05
3.68505e-06
0.000103803
4.97687e-06
0.000142239
6.17829e-06
0.000189302
7.2438e-06
0.000246409
8.09643e-06
0.00031473
8.64238e-06
0.000395132
8.79081e-06
0.000488102
8.47867e-06
0.000593662
7.69915e-06
0.000711291
6.53038e-06
0.00083987
5.15854e-06
0.000977665
3.8878e-06
0.00112247
3.12983e-06
0.00126825
3.26097e-06
0.00141043
4.62708e-06
0.00154831
7.57355e-06
0.00167544
1.2095e-05
0.0017883
1.79111e-05
0.00188412
2.45046e-05
0.00195703
3.09024e-05
0.00200526
3.62027e-05
0.00202957
4.02255e-05
0.00203573
4.38949e-05
0.00203167
4.90308e-05
0.00202813
5.699e-05
0.00204213
6.6136e-05
0.00209075
6.98735e-05
5.7396e-05
2.27217e-05
9.19456e-07
4.59916e-05
2.64482e-06
7.2275e-05
4.22291e-06
0.000103754
5.69744e-06
0.000142314
7.06184e-06
0.000189636
8.26088e-06
0.000247218
9.20209e-06
0.000316343
9.77178e-06
0.000398037
9.85686e-06
0.000492993
9.37216e-06
0.000601501
8.29176e-06
0.000723376
6.68065e-06
0.000857889
4.72061e-06
0.00100372
2.72157e-06
0.00115894
1.10629e-06
0.00131884
3.35612e-07
0.00148136
9.24085e-07
0.00164264
3.25186e-06
0.00179697
7.31928e-06
0.00194495
1.3031e-05
0.00208186
2.00069e-05
0.00220073
2.72522e-05
0.00229898
3.37171e-05
0.00237611
3.89185e-05
0.00243424
4.33875e-05
0.0024736
4.8787e-05
0.00249745
5.71707e-05
0.00251754
6.86974e-05
0.00255217
7.79393e-05
7.62965e-05
2.26868e-05
1.03022e-06
4.59385e-05
2.96248e-06
7.22312e-05
4.72656e-06
0.000103768
6.36905e-06
0.000142468
7.87981e-06
0.000190072
9.19347e-06
0.000248157
1.02016e-05
0.00031813
1.07698e-05
0.000401179
1.07612e-05
0.000498215
1.00658e-05
0.000609812
8.63358e-06
0.000736136
6.50903e-06
0.000876881
3.85945e-06
0.00103119
9.90057e-07
0.00119752
-1.66414e-06
0.0013731
-3.57978e-06
0.00155623
-4.18663e-06
0.00174215
-2.99721e-06
0.00192831
2.39867e-07
0.0021149
5.57412e-06
0.00229593
1.27538e-05
0.00246559
2.10791e-05
0.00262013
2.96725e-05
0.00275704
3.79637e-05
0.00287248
4.61842e-05
0.00296023
5.57292e-05
0.00301834
6.88804e-05
0.00305371
8.66931e-05
0.00308636
0.000103915
0.000112115
2.26685e-05
1.13336e-06
4.59154e-05
3.25771e-06
7.22279e-05
5.19297e-06
0.000103829
6.98746e-06
0.000142675
8.62691e-06
0.000190561
1.00355e-05
0.000249148
1.10888e-05
0.000319963
1.16314e-05
0.000404357
1.1502e-05
0.000503464
1.05634e-05
0.000618145
8.73831e-06
0.000748926
6.04438e-06
0.000895947
2.62583e-06
0.00105889
-1.22762e-06
0.00123688
-5.08091e-06
0.00142843
-8.37887e-06
0.00163187
-1.04931e-05
0.00184427
-1.08178e-05
0.00206429
-8.8726e-06
0.00229039
-4.3433e-06
0.00251784
2.83026e-06
0.0027419
1.23654e-05
0.00295772
2.37422e-05
0.00315981
3.64736e-05
0.00333964
5.04322e-05
0.00348685
6.61247e-05
0.00359499
8.45932e-05
0.00366671
0.000105769
0.00372051
0.000123966
0.0001359
2.26658e-05
1.22838e-06
4.59199e-05
3.52915e-06
7.22592e-05
5.61989e-06
0.000103926
7.54967e-06
0.000142911
9.2996e-06
0.000191059
1.07835e-05
0.000250115
1.18609e-05
0.000321718
1.23562e-05
0.000407378
1.20832e-05
0.000508445
1.08773e-05
0.000626058
8.63115e-06
0.000761101
5.3316e-06
0.000914159
1.09283e-06
0.00108547
-3.82074e-06
0.00127486
-8.98734e-06
0.00148175
-1.38404e-05
0.00170527
-1.77035e-05
0.001944
-1.98541e-05
0.00219677
-1.95923e-05
0.00246209
-1.62906e-05
0.0027368
-9.46883e-06
0.00301665
1.1136e-06
0.00329617
1.54167e-05
0.00356763
3.31162e-05
0.00381965
5.3575e-05
0.00403852
7.57651e-05
0.00421263
9.80545e-05
0.00433873
0.000117319
0.00442866
0.00012713
0.000126036
2.26787e-05
1.315e-06
4.59509e-05
3.77591e-06
7.23215e-05
6.00591e-06
0.00010405
8.05385e-06
0.000143154
9.8959e-06
0.000191529
1.14357e-05
0.000250991
1.2518e-05
0.000323284
1.29472e-05
0.000410066
1.25138e-05
0.000512885
1.10259e-05
0.000633141
8.34571e-06
0.000772056
4.42703e-06
0.000930639
-6.50548e-07
0.00110965
-6.65553e-06
0.00130959
-1.31909e-05
0.00153068
-1.96955e-05
0.00177288
-2.5461e-05
0.00203586
-2.96655e-05
0.00231918
-3.14094e-05
0.00262198
-2.97468e-05
0.00294221
-2.37452e-05
0.00327642
-1.25973e-05
0.00361923
4.20039e-06
0.00396206
2.65544e-05
0.00429188
5.33276e-05
0.00459151
8.18246e-05
0.00484238
0.000107475
0.00503028
0.000124032
0.00515394
0.000125025
0.000110569
2.27079e-05
1.39305e-06
4.60092e-05
3.99756e-06
7.24136e-05
6.35038e-06
0.000104193
8.49926e-06
0.00014339
1.04153e-05
0.000191941
1.19927e-05
0.000251722
1.30621e-05
0.000324569
1.34103e-05
0.000412271
1.28059e-05
0.00051655
1.10317e-05
0.00063904
7.92053e-06
0.000781266
3.39309e-06
0.000944616
-2.50748e-06
0.00113033
-9.58734e-06
0.00133949
-1.7483e-05
0.00157301
-2.56526e-05
0.00183167
-3.33754e-05
0.00211601
-3.97578e-05
0.00242642
-4.37368e-05
0.00276289
-4.40849e-05
0.00312443
-3.94504e-05
0.00350868
-2.84863e-05
0.00391104
-1.01407e-05
0.00432333
1.58065e-05
0.00473215
4.79399e-05
0.00511755
8.23737e-05
0.00545288
0.000112568
0.00570793
0.000130803
0.00586134
0.000131828
0.000121734
2.27551e-05
1.46255e-06
4.60974e-05
4.19413e-06
7.2538e-05
6.65339e-06
0.000104357
8.88619e-06
0.000143615
1.08586e-05
0.000192277
1.24562e-05
0.000252271
1.34974e-05
0.000325507
1.37534e-05
0.00041388
1.29739e-05
0.00051926
1.09191e-05
0.000643479
7.3956e-06
0.000788313
2.29288e-06
0.000955475
-4.38164e-06
0.00114661
-1.24734e-05
0.00136328
-2.1658e-05
0.001607
-3.14239e-05
0.00187918
-4.10582e-05
0.00218114
-4.9629e-05
0.00251403
-5.59613e-05
0.00287863
-5.86159e-05
0.00327501
-5.59091e-05
0.00370198
-4.60502e-05
0.00415624
-2.75012e-05
0.00463104
3.22739e-07
0.00511414
3.60132e-05
0.00558528
7.51565e-05
0.00601272
0.000110367
0.00635113
0.000133732
0.00655341
0.000141184
0.000141224
2.28233e-05
1.52366e-06
4.62208e-05
4.36608e-06
7.27012e-05
6.91572e-06
0.000104548
9.21587e-06
0.00014383
1.12278e-05
0.000192534
1.28295e-05
0.000252623
1.38293e-05
0.00032606
1.39856e-05
0.000414824
1.30326e-05
0.000520898
1.07123e-05
0.000646269
6.80889e-06
0.000792912
1.18484e-06
0.00096279
-6.18522e-06
0.00115786
-1.51848e-05
0.00138007
-2.55307e-05
0.00163136
-3.67501e-05
0.00191368
-4.81559e-05
0.00222887
-5.88132e-05
0.00257868
-6.74949e-05
0.00296456
-7.264e-05
0.00338739
-7.23592e-05
0.00384702
-6.45702e-05
0.00434155
-4.73894e-05
0.00486604
-1.99094e-05
0.00541071
1.66349e-05
0.00595816
5.77389e-05
0.00647857
9.57494e-05
0.00692217
0.000122937
0.0072196
0.000136493
0.000142925
2.29175e-05
1.57708e-06
4.63884e-05
4.51538e-06
7.29152e-05
7.1404e-06
0.000104778
9.49226e-06
0.00014405
1.15277e-05
0.000192724
1.31186e-05
0.000252782
1.40652e-05
0.000326223
1.41164e-05
0.000415078
1.29953e-05
0.00052141
1.043e-05
0.000647318
6.18791e-06
0.000794916
1.09796e-07
0.000966338
-7.85784e-06
0.00116375
-1.76333e-05
0.00138937
-2.89738e-05
0.00164544
-4.14504e-05
0.00193421
-5.4417e-05
0.0022579
-6.69681e-05
0.00261858
-7.78837e-05
0.00301806
-8.55777e-05
0.00345767
-8.80963e-05
0.00393794
-8.32532e-05
0.00445787
-6.90229e-05
0.00501391
-4.43301e-05
0.00559837
-1.02648e-05
0.0061974
2.86361e-05
0.00678705
6.41329e-05
0.00732282
8.70162e-05
0.00772109
9.2666e-05
0.000100397
0.000229567
-0.000189103
0.00046903
-0.000192243
0.00076905
-0.000193028
0.00106822
-0.000185947
0.0013312
-0.000173427
0.00154139
-0.000157195
0.00169178
-0.000139276
0.00178224
-0.000121059
0.00181736
-0.0001035
0.00180378
-8.72759e-05
0.00174905
-7.27025e-05
0.00166159
-5.99227e-05
0.00154845
-4.87889e-05
0.00141598
-3.89787e-05
0.00127136
-3.04672e-05
0.00112119
-2.32577e-05
0.000971657
-1.72463e-05
0.000827924
-1.23699e-05
0.000693693
-8.5217e-06
0.000571456
-5.57187e-06
0.000462719
-3.38539e-06
0.000368106
-1.82922e-06
0.00028748
-7.76806e-07
0.000220076
-1.12806e-07
0.000164642
2.6303e-07
0.000119555
4.3348e-07
8.28919e-05
4.63059e-07
5.24607e-05
3.98586e-07
2.57495e-05
2.70839e-07
9.76588e-08
0.000441899
-0.00035183
0.000662634
-0.000358987
0.000934387
-0.000360977
0.00120578
-0.000350682
0.00144478
-0.000329842
0.00163452
-0.000301086
0.00176719
-0.000268194
0.00184266
-0.000234153
0.00186517
-0.000201008
0.00184078
-0.00017008
0.00177648
-0.000142012
0.0016814
-0.000117122
0.00156286
-9.54002e-05
0.001426
-7.64135e-05
0.00127771
-5.98887e-05
0.00112458
-4.57381e-05
0.000972778
-3.39002e-05
0.000827568
-2.42988e-05
0.000692443
-1.67231e-05
0.000569727
-1.09169e-05
0.000460805
-6.61486e-06
0.000366207
-3.555e-06
0.000285725
-1.48791e-06
0.000218542
-1.86127e-07
0.000163368
5.48086e-07
0.000118552
8.77978e-07
8.21627e-05
9.30713e-07
5.20004e-05
7.98466e-07
2.55459e-05
5.4167e-07
1.95176e-07
0.000808616
-0.000483017
0.00100003
-0.000489518
0.00122866
-0.000493653
0.00145664
-0.000484387
0.00165631
-0.000460329
0.00181083
-0.000423875
0.00191256
-0.000380218
0.00196183
-0.000333996
0.00196184
-0.000288375
0.00191782
-0.00024526
0.0018361
-0.000205633
0.00172609
-0.000169927
0.00159619
-0.000138419
0.00145118
-0.000111052
0.00129664
-8.73432e-05
0.00113781
-6.68723e-05
0.000981124
-4.95955e-05
0.000832599
-3.55274e-05
0.000695238
-2.44294e-05
0.000571046
-1.5922e-05
0.000461194
-9.61856e-06
0.000366055
-5.13684e-06
0.000285298
-2.11176e-06
0.000218015
-2.09923e-07
0.000162851
8.58774e-07
0.000118111
1.33392e-06
8.18308e-05
1.40214e-06
5.17934e-05
1.19862e-06
2.54595e-05
8.11764e-07
2.92295e-07
0.00126253
-0.00056656
0.00141899
-0.000578936
0.00160334
-0.000590414
0.00178536
-0.000586801
0.00193957
-0.000563632
0.00205115
-0.000523563
0.00211455
-0.000473297
0.00213029
-0.000418741
0.00210075
-0.00036396
0.00203048
-0.000311445
0.00192564
-0.000262502
0.00179471
-0.000217742
0.00164702
-0.000177644
0.00148948
-0.000142545
0.00132662
-0.000112219
0.00116016
-8.61146e-05
0.000996441
-6.39662e-05
0.000843024
-4.58177e-05
0.000702202
-3.14811e-05
0.000575587
-2.04815e-05
0.000464073
-1.23289e-05
0.000367826
-6.53337e-06
0.000286353
-2.62454e-06
0.000218625
-1.71495e-07
0.000163195
1.20115e-06
0.000118305
1.80371e-06
8.19444e-05
1.87796e-06
5.18644e-05
1.59895e-06
2.54982e-05
1.08089e-06
3.88915e-07
0.00173739
-0.00060772
0.00186908
-0.00063962
0.00202066
-0.000662284
0.00216315
-0.000665457
0.00227267
-0.000644272
0.00233889
-0.000602607
0.0023597
-0.000548371
0.00233695
-0.000488415
0.00227316
-0.000427427
0.00217168
-0.000368177
0.00203873
-0.000312068
0.00188213
-0.000259904
0.00171266
-0.000212557
0.00153866
-0.000170757
0.00136353
-0.000134448
0.00118733
-0.00010317
0.0010158
-7.66766e-05
0.0008565
-5.49397e-05
0.00071137
-3.77139e-05
0.000581681
-2.4479e-05
0.000468032
-1.46657e-05
0.000370339
-7.6914e-06
0.000287915
-2.99235e-06
0.000219578
-5.03201e-08
0.000163771
1.58689e-06
0.000118652
2.29345e-06
8.21551e-05
2.361e-06
5.19908e-05
2.00053e-06
2.55612e-05
1.34934e-06
4.85071e-07
0.00219943
-0.000659731
0.00232992
-0.000701428
0.00246458
-0.00072697
0.00257543
-0.000730361
0.00264369
-0.000708028
0.00266381
-0.000664525
0.00263708
-0.000607396
0.00256983
-0.000543564
0.00246755
-0.000478421
0.00233254
-0.000414924
0.00216905
-0.000353966
0.00198389
-0.000296134
0.00179008
-0.000242751
0.00159702
-0.000195211
0.00140597
-0.000153724
0.0012178
-0.000117884
0.00103808
-8.75885e-05
0.000872242
-6.27499e-05
0.000722198
-4.30127e-05
0.00058896
-2.78302e-05
0.000472823
-1.657e-05
0.000373432
-8.57151e-06
0.000289879
-3.19004e-06
0.00022081
1.68774e-07
0.000164538
2.02453e-06
0.000119129
2.8075e-06
8.24514e-05
2.85316e-06
5.21679e-05
2.404e-06
2.56478e-05
1.61719e-06
5.80746e-07
0.00267878
-0.000754298
0.00281753
-0.000781946
0.00293917
-0.000794424
0.00301869
-0.0007873
0.00304515
-0.000758449
0.0030175
-0.000711609
0.00293957
-0.000652468
0.00282099
-0.000586521
0.00267355
-0.000518685
0.00250195
-0.000452
0.00230746
-0.000387417
0.0020945
-0.000325564
0.00187522
-0.000267789
0.00166071
-0.000215642
0.00145219
-0.000169779
0.0012511
-0.000130134
0.00106236
-9.66473e-05
0.000889454
-6.91712e-05
0.0007341
-4.73102e-05
0.000597014
-3.04837e-05
0.000478169
-1.80056e-05
0.000376923
-9.14949e-06
0.000292128
-3.20246e-06
0.000222247
4.94631e-07
0.000165453
2.51873e-06
0.000119712
3.34796e-06
8.28197e-05
3.35511e-06
5.239e-05
2.80933e-06
2.57559e-05
1.88426e-06
6.75837e-07
0.00322911
-0.000863511
0.00335986
-0.000868353
0.00345441
-0.000858338
0.00349236
-0.00083436
0.00346977
-0.000795826
0.00339013
-0.000744802
0.00325996
-0.000684533
0.00308879
-0.000618384
0.00289143
-0.000549557
0.00267705
-0.000480597
0.00244788
-0.000413094
0.00220726
-0.000348256
0.00196358
-0.000287413
0.00172688
-0.000231915
0.00150034
-0.000182632
0.00128609
-0.000139907
0.0010876
-0.000103809
0.000907313
-7.41728e-05
0.000746472
-5.05803e-05
0.000605421
-3.24197e-05
0.000483786
-1.89585e-05
0.000380624
-9.41659e-06
0.000294543
-3.02468e-06
0.000223815
9.29499e-07
0.000166472
3.07005e-06
0.000120374
3.91445e-06
8.32465e-05
3.8661e-06
5.26506e-05
3.21575e-06
2.58833e-05
2.14996e-06
7.70132e-07
0.00387042
-0.000948411
0.00396531
-0.000932164
0.00401032
-0.000903562
0.0039912
-0.000865247
0.00390902
-0.000818593
0.00377075
-0.000764549
0.00358553
-0.00070417
0.00336328
-0.000638927
0.00311698
-0.000570618
0.00285716
-0.000501107
0.00258944
-0.000432114
0.00231849
-0.000365255
0.00205045
-0.000302112
0.00179242
-0.000244109
0.00154837
-0.000192284
0.00132098
-0.000147213
0.00111264
-0.000109088
0.000924978
-7.77697e-05
0.000758716
-5.28352e-05
0.000613765
-3.3647e-05
0.000489391
-1.94359e-05
0.000384348
-9.37861e-06
0.000297004
-2.6616e-06
0.00022544
1.46923e-06
0.00016755
3.67506e-06
0.000121092
4.5042e-06
8.37189e-05
4.38398e-06
5.29438e-05
3.62173e-06
2.60279e-05
2.41336e-06
8.63308e-07
0.00457296
-0.000971341
0.00461249
-0.000955362
0.00459113
-0.000920781
0.00450205
-0.000876434
0.00435108
-0.000826358
0.00414792
-0.000771859
0.00390355
-0.00071287
0.00362895
-0.000649568
0.00333524
-0.00058278
0.0030321
-0.000513887
0.00272675
-0.000444596
0.00242503
-0.000376751
0.00213247
-0.000312172
0.00185423
-0.000252472
0.00159394
-0.000198878
0.00135405
-0.000152139
0.0011363
-0.000112552
0.000941638
-8.00193e-05
0.000770264
-5.41199e-05
0.000621655
-3.42001e-05
0.000494721
-1.94635e-05
0.000387925
-9.05454e-06
0.000299401
-2.1271e-06
0.000227056
2.10381e-06
0.000168648
4.32658e-06
0.000121843
5.11219e-06
8.4226e-05
4.9053e-06
5.32648e-05
4.02503e-06
2.61879e-05
2.67319e-06
9.54941e-07
0.00527998
-0.00095422
0.00526429
-0.000947545
0.00517191
-0.000915466
0.0050063
-0.000871393
0.00478089
-0.000821767
0.00450913
-0.000768936
0.00420362
-0.000712503
0.00387569
-0.00065191
0.00353556
-0.000587351
0.00319204
-0.000519869
0.00285232
-0.00045113
0.00252224
-0.000383131
0.00220675
-0.000317904
0.00191
-0.000257263
0.00163503
-0.000202608
0.00138382
-0.000154832
0.00115753
-0.00011432
0.000956559
-8.10154e-05
0.000780607
-5.4508e-05
0.000628745
-3.41352e-05
0.000499546
-1.9083e-05
0.000391204
-8.47482e-06
0.000301643
-1.44291e-06
0.000228607
2.81799e-06
0.000169736
5.01415e-06
0.000122611
5.73135e-06
8.47604e-05
5.42546e-06
5.36107e-05
4.42276e-06
2.63626e-05
2.92783e-06
1.04451e-06
0.00595887
-0.00093479
0.00589484
-0.000930112
0.0057303
-0.000899976
0.00548439
-0.000857042
0.00518178
-0.000808934
0.00484062
-0.000758477
0.00447484
-0.000705007
0.00409554
-0.000647425
0.00371193
-0.000585456
0.00333175
-0.000519877
0.00296142
-0.000452305
0.00260623
-0.000384835
0.0022705
-0.000319664
0.0019576
-0.000258774
0.00166996
-0.000203712
0.00140902
-0.000155482
0.00117544
-0.000114545
0.00096912
-8.08819e-05
0.000789318
-5.40968e-05
0.000634744
-3.35265e-05
0.000503675
-1.83498e-05
0.000394066
-7.67963e-06
0.000303655
-6.37518e-07
0.00023005
3.59204e-06
0.00017079
5.72441e-06
0.000123387
6.35287e-06
8.53187e-05
5.93881e-06
5.39811e-05
4.81148e-06
2.65523e-05
3.17544e-06
1.13142e-06
0.00661735
-0.000919334
0.00649452
-0.00091198
0.0062469
-0.000880592
0.00591538
-0.000837383
0.00553516
-0.000790497
0.00512732
-0.000742386
0.0047056
-0.00069186
0.00427991
-0.000637303
0.00385798
-0.000578054
0.00344622
-0.000514672
0.00305002
-0.000448719
0.00267387
-0.000382342
0.00232139
-0.000317847
0.0019953
-0.000257338
0.00169742
-0.000202465
0.0014287
-0.000154318
0.00118935
-0.000113414
0.00097884
-7.97687e-05
0.000796071
-5.30039e-05
0.000639439
-3.24643e-05
0.000506971
-1.7331e-05
0.000396425
-6.7177e-06
0.00030539
2.54609e-07
0.000231362
4.4022e-06
0.000171802
6.44139e-06
0.000124167
6.9663e-06
8.59025e-05
6.43872e-06
5.43787e-05
5.1872e-06
2.67589e-05
3.41387e-06
1.21498e-06
0.00725728
-0.000904154
0.00703705
-0.000892076
0.00668858
-0.000855482
0.00627019
-0.000811512
0.00581851
-0.000766509
0.00535268
-0.000721271
0.00488406
-0.000673889
0.00442042
-0.000622399
0.00396777
-0.000565935
0.00353114
-0.00050495
0.00311489
-0.000440968
0.00272273
-0.000376159
0.00235766
-0.000312888
0.00202181
-0.000253325
0.00171647
-0.000199183
0.00144218
-0.000151603
0.00119877
-0.000111142
0.000985393
-7.7849e-05
0.00080065
-5.13652e-05
0.000642692
-3.10522e-05
0.000509352
-1.6104e-05
0.000398237
-5.64515e-06
0.000306826
1.19378e-06
0.000232536
5.22112e-06
0.000172773
7.14672e-06
0.000124959
7.55966e-06
8.65187e-05
6.91764e-06
5.48092e-05
5.54539e-06
2.69857e-05
3.64068e-06
1.29441e-06
0.00776253
-0.000882345
0.00743287
-0.000835287
0.00699441
-0.000808096
0.00650954
-0.000772411
0.00600676
-0.00073411
0.00550049
-0.000694082
0.00499956
-0.00065084
0.00451
-0.000602815
0.00403656
-0.000549365
0.00358329
-0.00049104
0.00315374
-0.000429397
0.00275116
-0.00036662
0.00237813
-0.000305097
0.00203629
-0.00024702
0.00172652
-0.000194117
0.00144904
-0.000147552
0.00120341
-0.000107911
0.000988591
-7.52683e-05
0.000802941
-4.9295e-05
0.000644441
-2.93772e-05
0.000510788
-1.47325e-05
0.000399496
-4.50713e-06
0.000307971
2.1494e-06
0.000233585
6.02905e-06
0.000173719
7.82844e-06
0.000125779
8.12629e-06
8.71816e-05
7.37225e-06
5.52831e-05
5.88466e-06
2.72381e-05
3.85544e-06
1.36963e-06
2.39155e-05
1.62333e-06
4.83754e-05
4.64367e-06
7.59669e-05
7.33036e-06
0.000109048
9.71992e-06
0.000149763
1.17651e-05
0.000200178
1.33329e-05
0.000262353
1.42183e-05
0.000338375
1.41641e-05
0.000430378
1.28863e-05
0.000540552
1.01046e-05
0.000671148
5.57534e-06
0.000824446
-8.76449e-07
0.00100275
-9.3271e-06
0.00120843
-1.97256e-05
0.00144393
-3.18675e-05
0.00171172
-4.53705e-05
0.00201431
-5.96421e-05
0.00235413
-7.38356e-05
0.0027334
-8.67931e-05
0.00315397
-9.6994e-05
0.00361721
-0.000102558
0.00412377
-0.000101385
0.00467272
-9.1528e-05
0.00526061
-7.19388e-05
0.00587961
-4.36343e-05
0.00651578
-1.10201e-05
0.0071475
1.73719e-05
0.00773452
3.03917e-05
0.00818742
1.98506e-05
-1.94309e-05
0.00852229
2.46145e-05
1.66192e-06
4.97482e-05
4.74982e-06
7.80309e-05
7.48477e-06
0.000111859
9.89955e-06
0.000153409
1.19437e-05
0.000204778
1.34814e-05
0.000268059
1.43047e-05
0.000345374
1.41541e-05
0.0004389
1.27429e-05
0.000550891
9.78755e-06
0.000683696
5.0397e-06
0.000839675
-1.68478e-06
0.00102117
-1.04799e-05
0.00123063
-2.13212e-05
0.00147056
-3.40399e-05
0.00174351
-4.83011e-05
0.00205201
-6.35754e-05
0.00239848
-7.90993e-05
0.00278497
-9.38241e-05
0.00321292
-0.000106371
0.00368317
-0.000115045
0.00419594
-0.000117984
0.00474938
-0.000113508
0.00533908
-0.000100753
0.00595572
-8.06598e-05
0.00658219
-5.71082e-05
0.00719525
-3.76209e-05
0.00775817
-3.2699e-05
0.00819738
-5.2033e-05
-0.000103521
0.00843865
2.52992e-05
1.6924e-06
5.10839e-05
4.83282e-06
8.00161e-05
7.60282e-06
0.000114519
1.00317e-05
0.000156788
1.20669e-05
0.000208936
1.35715e-05
0.000273065
1.43382e-05
0.000351303
1.41082e-05
0.000445831
1.25966e-05
0.000558921
9.52136e-06
0.000693023
4.63674e-06
0.000850538
-2.24259e-06
0.00103372
-1.12239e-05
0.00124493
-2.2306e-05
0.00148667
-3.53517e-05
0.0017614
-5.00716e-05
0.00207149
-6.60033e-05
0.00241922
-8.24828e-05
0.00280622
-9.86025e-05
0.00323309
-0.000113174
0.00369957
-0.000124755
0.00420511
-0.000131812
0.0047467
-0.000133042
0.00531785
-0.00012785
0.00590745
-0.000117081
0.00649586
-0.00010386
0.00705691
-9.40906e-05
0.00755706
-9.61605e-05
0.00794321
-0.000119066
-0.000167287
0.00814215
2.59434e-05
1.71464e-06
5.233e-05
4.89248e-06
8.1841e-05
7.68489e-06
0.000116913
1.01181e-05
0.000159744
1.21388e-05
0.000212445
1.36113e-05
0.000277104
1.43312e-05
0.000355821
1.40449e-05
0.000450723
1.24726e-05
0.000564023
9.33699e-06
0.000698353
4.40374e-06
0.000856186
-2.50198e-06
0.00103943
-1.14981e-05
0.00125024
-2.26069e-05
0.00149101
-3.57171e-05
0.00176397
-5.05794e-05
0.00207115
-6.67947e-05
0.00241455
-8.38026e-05
0.00279537
-0.000100856
0.00321309
-0.000116975
0.00366603
-0.000130987
0.00415252
-0.000141706
0.00466868
-0.00014819
0.00520569
-0.000150077
0.00575046
-0.000148097
0.00628339
-0.000144632
0.00677815
-0.000144016
0.00720368
-0.00015227
0.00751854
-0.000175722
-0.000215463
0.00766777
2.65233e-05
1.72836e-06
5.34398e-05
4.92828e-06
8.34357e-05
7.73107e-06
0.000118946
1.01609e-05
0.000162159
1.2165e-05
0.000215161
1.36114e-05
0.000280007
1.43021e-05
0.000358737
1.39915e-05
0.00045336
1.24084e-05
0.000565808
9.27842e-06
0.000699005
4.38072e-06
0.000855841
-2.428e-06
0.00103754
-1.12644e-05
0.0012457
-2.21819e-05
0.00148266
-3.50932e-05
0.00175034
-4.97805e-05
0.00205026
-6.59047e-05
0.00238394
-8.29996e-05
0.00275209
-0.000100459
0.0031532
-0.000117502
0.0035845
-0.000133221
0.00404278
-0.000146732
0.00452281
-0.000157358
0.00501473
-0.000164878
0.00550444
-0.000169878
0.00597333
-0.000174076
0.00639746
-0.000180429
0.00674896
-0.000192822
0.00699499
-0.000215011
-0.000246157
0.0071009
2.70049e-05
1.73193e-06
5.4349e-05
4.93618e-06
8.47054e-05
7.73609e-06
0.000120492
1.01542e-05
0.000163869
1.21401e-05
0.000216886
1.35679e-05
0.000281546
1.4249e-05
0.000359813
1.39504e-05
0.000453564
1.24147e-05
0.000564419
9.38037e-06
0.000695284
4.63304e-06
0.0008494
-1.959e-06
0.00102755
-1.0494e-05
0.00123074
-2.10259e-05
0.00146108
-3.34876e-05
0.00172012
-4.76935e-05
0.00200892
-6.33598e-05
0.00232821
-8.00983e-05
0.00267787
-9.74107e-05
0.00305588
-0.000114685
0.00345879
-0.000131239
0.003882
-0.000146418
0.00431885
-0.000159726
0.00475928
-0.000171005
0.00518957
-0.00018065
0.00559242
-0.000189774
0.00594707
-0.0002002
0.00623024
-0.000214162
0.0064174
-0.000233577
-0.00025685
0.00648911
2.73597e-05
1.72684e-06
5.50006e-05
4.9201e-06
8.55596e-05
7.70534e-06
0.000121418
1.01041e-05
0.00016469
1.20695e-05
0.000217369
1.34837e-05
0.000281386
1.41705e-05
0.000358623
1.39125e-05
0.000450871
1.2472e-05
0.000559733
9.61232e-06
0.000687569
5.13024e-06
0.000837087
-1.11523e-06
0.00100936
-9.20797e-06
0.00120527
-1.91759e-05
0.00142637
-3.09593e-05
0.00167371
-4.44027e-05
0.00194786
-5.92647e-05
0.0022488
-7.52196e-05
0.00257552
-9.18587e-05
0.00292556
-0.000108699
0.00329497
-0.000125216
0.00367833
-0.000140913
0.00406825
-0.000155406
0.00445472
-0.000168538
0.00482501
-0.000180501
0.00516383
-0.000191903
0.00545388
-0.000203721
0.0056769
-0.000217057
0.00581549
-0.000232708
-0.000249022
0.00586035
2.75777e-05
1.71423e-06
5.53702e-05
4.88294e-06
8.59581e-05
7.64324e-06
0.000121666
1.00167e-05
0.000164542
1.19614e-05
0.0002165
1.33689e-05
0.000279377
1.40772e-05
0.000354953
1.38872e-05
0.00044493
1.25825e-05
0.000550939
9.95108e-06
0.000674786
5.80996e-06
0.000818393
2.64884e-08
0.000983061
-7.4755e-06
0.00116971
-1.67104e-05
0.00137925
-2.7618e-05
0.00161227
-4.00595e-05
0.00186878
-5.38237e-05
0.00214814
-6.86313e-05
0.0024487
-8.41403e-05
0.00276753
-9.99582e-05
0.00310031
-0.000115668
0.00344126
-0.000130869
0.00378288
-0.000145237
0.00411567
-0.000158588
0.00442826
-0.000170935
0.00470767
-0.000182517
0.00494004
-0.000193739
0.00511167
-0.000205023
0.00521067
-0.000216565
-0.000227009
0.00523433
2.76374e-05
1.69278e-06
5.54171e-05
4.82141e-06
8.58443e-05
7.54552e-06
0.000121169
9.88768e-06
0.000163354
1.1812e-05
0.000214215
1.3221e-05
0.000275474
1.39685e-05
0.000348784
1.38751e-05
0.000435715
1.27473e-05
0.00053776
1.03972e-05
0.000656408
6.66326e-06
0.000793108
1.42793e-06
0.000948957
-5.37259e-06
0.00112469
-1.3742e-05
0.00132081
-2.36178e-05
0.00153741
-3.4871e-05
0.00177404
-4.73109e-05
0.00202953
-6.06907e-05
0.00230178
-7.4716e-05
0.00258753
-8.90553e-05
0.00288229
-0.000103359
0.00318027
-0.000117289
0.0034743
-0.000130547
0.00375576
-0.000142917
0.00401485
-0.000154288
0.00424093
-0.000164663
0.00442324
-0.000174112
0.00455187
-0.000182697
0.00461894
-0.000190354
-0.000196134
0.00462598
2.75173e-05
1.66297e-06
5.51025e-05
4.73689e-06
8.51664e-05
7.41418e-06
0.000119866
9.71924e-06
0.000161063
1.1623e-05
0.000210461
1.30402e-05
0.000269653
1.38412e-05
0.000340141
1.38676e-05
0.000423335
1.29489e-05
0.000520544
1.09215e-05
0.000632991
7.64611e-06
0.000761759
3.02314e-06
0.000907656
-2.99708e-06
0.00107116
-1.04083e-05
0.0012524
-1.9145e-05
0.00145108
-2.90841e-05
0.00166633
-4.00489e-05
0.0018966
-5.18167e-05
0.00213948
-6.41261e-05
0.00239158
-7.66877e-05
0.00264843
-8.91975e-05
0.00290453
-0.000101355
0.00315329
-0.000112882
0.00338722
-0.000123544
0.00359812
-0.000133162
0.00377753
-0.000141612
0.00391739
-0.000148807
0.00401069
-0.000154656
0.0040524
-0.000159021
-0.00016135
0.00404679
2.72085e-05
1.62495e-06
5.44108e-05
4.62963e-06
8.39043e-05
7.24939e-06
0.000117737
9.51092e-06
0.000157659
1.13926e-05
0.000205245
1.28219e-05
0.000261947
1.36865e-05
0.000329107
1.38487e-05
0.000407957
1.31615e-05
0.000499604
1.14848e-05
0.000605014
8.70154e-06
0.000724974
4.73057e-06
0.000860002
-4.63592e-07
0.00101029
-6.86554e-06
0.00117566
-1.44071e-05
0.00135549
-2.29693e-05
0.0015486
-3.23872e-05
0.00175317
-4.24565e-05
0.00196666
-5.29418e-05
0.00218566
-6.3585e-05
0.00240596
-7.41165e-05
0.00262248
-8.42666e-05
0.00282946
-9.37783e-05
0.00302054
-0.000102419
0.0031891
-0.000109988
0.0033286
-0.00011632
0.00343315
-0.000121275
0.00349799
-0.000124729
0.00352006
-0.000126561
-0.00012654
0.00350528
2.67043e-05
1.57887e-06
5.33298e-05
4.50002e-06
8.20446e-05
7.0513e-06
0.000114773
9.26209e-06
0.000153141
1.11184e-05
0.000198588
1.25605e-05
0.000252416
1.34932e-05
0.000315802
1.37996e-05
0.000389792
1.3355e-05
0.000475287
1.20422e-05
0.00057302
9.76506e-06