/*--------------------------------*- C++ -*----------------------------------*\
| =========                 |                                                 |
| \\      /  F ield         | OpenFOAM: The Open Source CFD Toolbox           |
|  \\    /   O peration     | Version:  2012                                  |
|   \\  /    A nd           | Website:  www.openfoam.com                      |
|    \\/     M anipulation  |                                                 |
\*---------------------------------------------------------------------------*/
FoamFile
{
    version     2.0;
    format      ascii;
    class       volScalarField;
    location    "0.4";
    object      p;
}
// * * * * * * * * * * * * * * * * * * * * * * * * * * * * * * * * * * * * * //

dimensions      [0 2 -2 0 0 0 0];


internalField   nonuniform List<scalar> 
2790
(
63.5911
63.4542
63.6368
64.0881
64.7157
65.4888
66.4057
67.4668
68.669
70.0086
71.4819
73.0852
74.8145
76.6643
78.6278
80.6956
82.8557
85.0921
87.3837
89.7043
92.0215
94.2979
96.4906
98.5538
100.441
102.107
103.514
104.633
105.439
105.956
63.3971
63.3712
63.5793
64.0282
64.6527
65.4235
66.3371
67.3935
68.5901
69.9232
71.3893
72.985
74.7062
76.5476
78.5026
80.5623
82.7151
84.9456
87.2335
89.553
91.873
94.1566
96.3617
98.4427
100.352
102.045
103.481
104.628
105.458
106.001
63.2167
63.2612
63.4893
63.9293
64.5426
65.3031
66.2047
67.2466
68.4264
69.7405
71.1856
72.758
74.4538
76.2679
78.1938
80.2231
82.3447
84.5443
86.8026
89.095
91.3923
93.6591
95.8551
97.9355
99.853
101.56
103.013
104.173
104.997
105.507
63.0189
63.0947
63.3367
63.77
64.3713
65.1187
66.0048
67.0276
68.1848
69.4728
70.8882
72.4272
74.0858
75.8589
77.7402
79.7214
81.7925
83.9399
86.1455
88.3864
90.6355
92.8597
95.0206
97.0747
98.9746
100.67
102.112
103.251
104.03
104.447
62.7939
62.8845
63.1365
63.5649
64.1529
64.8834
65.7489
66.7467
67.8741
69.1276
70.5036
71.9982
73.6072
75.3253
77.1463
79.0622
81.0636
83.1376
85.2674
87.4323
89.607
91.7611
93.8587
95.8581
97.7121
99.3688
100.773
101.869
102.592
102.906
62.5374
62.6346
62.8908
63.3121
63.8842
64.5936
65.4334
66.4005
67.4917
68.7034
70.0315
71.472
73.0201
74.6705
76.4167
78.2509
80.1641
82.1439
84.1746
86.2378
88.3099
90.3634
92.3652
94.2763
96.0511
97.638
98.9797
100.019
100.696
100.942
62.2474
62.3465
62.6019
63.0136
63.5673
64.2521
65.0619
65.9931
67.0421
68.2047
69.4767
70.8534
72.3298
73.9
75.5572
77.2937
79.1
80.9642
82.8723
84.8064
86.7452
88.6638
90.5324
92.3155
93.9711
95.4513
96.7028
97.6709
98.3082
98.5226
61.9233
62.0216
62.2722
62.6713
63.2041
63.861
64.6366
65.5269
66.5277
67.6345
68.8425
70.1465
71.5407
73.0188
74.5733
76.1961
77.8771
79.6047
81.3651
83.1411
84.9129
86.6578
88.3492
89.9556
91.4411
92.7659
93.8867
94.7572
95.3471
95.556
61.5654
61.661
61.9037
62.2874
62.7967
63.4225
64.16
65.0046
65.9518
66.9965
68.1332
69.356
70.6584
72.0331
73.4719
74.9655
76.5033
78.0729
79.6599
81.2471
82.8151
84.3422
85.8038
87.1729
88.4209
89.52
90.4442
91.1658
91.6783
91.8992
61.1745
61.266
61.4984
61.8641
62.3474
62.9392
63.6348
64.4296
65.3182
66.295
67.3538
68.4877
69.6893
70.9502
72.2609
73.611
74.9883
76.3789
77.7669
79.1336
80.4584
81.7183
82.8887
83.9449
84.8649
85.6344
86.2517
86.7246
87.0873
87.3246
60.7518
60.8383
61.0584
61.4039
61.8587
62.4138
63.0644
63.8054
64.631
65.5348
66.5096
67.5477
68.6405
69.7782
70.95
72.1433
73.344
74.536
75.7004
76.8154
77.8565
78.7964
79.6063
80.2581
80.7307
81.019
81.1479
81.1807
81.2288
81.4473
60.2988
60.3795
60.5858
60.9091
61.3332
61.8492
62.4519
63.1358
63.8945
64.7207
65.6065
66.543
67.5201
68.5266
69.5498
70.5749
71.5852
72.5611
73.4796
74.3139
75.0325
75.5994
75.9749
76.1179
75.9939
75.5898
74.942
74.1767
73.5308
73.5201
59.8172
59.8916
60.0827
60.3822
60.7738
61.2486
61.8009
62.4248
63.1134
63.8584
64.6509
65.4808
66.3366
67.2055
68.0724
68.9202
69.7287
70.4744
71.1288
71.6578
72.0203
72.1665
72.0368
71.563
70.6726
69.3052
67.4519
65.2479
63.0653
62.1204
59.309
59.3765
59.5516
59.8257
60.1833
60.6151
61.115
61.6768
62.2925
62.9534
63.6493
64.369
65.0994
65.8258
66.531
67.1949
67.7939
68.2994
68.677
68.8838
68.8661
68.5558
67.8654
66.6824
64.8638
62.2355
58.613
53.9138
48.3628
44.233
58.7761
58.8365
58.9946
59.2425
59.5648
59.9521
60.3981
60.8959
61.4369
62.0115
62.6085
63.2155
63.8178
64.3988
64.9391
65.4156
65.801
66.0618
66.1568
66.0339
65.6259
64.8437
63.5669
61.6269
58.7815
54.6688
48.7287
40.1118
27.4252
11.4873
-93.0109
-93.5453
-94.5629
-96.1739
-98.4173
-101.253
-104.526
-107.943
-111.059
-113.301
-114.028
-112.636
-108.689
-102.037
-92.8736
-81.7768
-69.5753
-57.1692
-45.3653
-34.7448
-25.6255
-17.6886
-10.8162
-5.51103
-1.75821
0.705582
2.11253
2.65299
2.47191
1.68371
-93.0112
-93.6067
-94.6771
-96.3601
-98.7043
-101.676
-105.122
-108.74
-112.069
-114.51
-115.394
-114.097
-110.183
-103.502
-94.2659
-83.0711
-70.7537
-58.2181
-46.2753
-35.5143
-26.2639
-18.1805
-11.1978
-5.84588
-2.03983
0.475358
1.92868
2.512
2.37292
1.66488
-93.3307
-94.0897
-95.3148
-97.1826
-99.7454
-102.975
-106.716
-110.656
-114.311
-117.046
-118.149
-116.958
-113.027
-106.215
-96.7502
-85.2799
-72.6776
-59.8698
-47.6768
-36.6916
-27.2212
-18.8939
-11.7451
-6.30859
-2.42017
0.169016
1.68735
2.33122
2.25251
1.64041
-94.0898
-95.0782
-96.5184
-98.6553
-101.541
-105.154
-109.335
-113.752
-117.885
-121.048
-122.466
-121.42
-117.44
-110.381
-100.517
-88.5751
-75.493
-62.2368
-49.6473
-38.3241
-28.4842
-19.806
-12.4801
-6.92628
-2.93118
-0.247575
1.35552
2.08029
2.08353
1.58621
-95.409
-96.6489
-98.3323
-100.802
-104.104
-108.221
-112.982
-118.03
-122.793
-126.512
-128.326
-127.443
-123.359
-115.919
-105.478
-92.8749
-79.1286
-65.2614
-52.1419
-40.3612
-29.9998
-20.8943
-13.3902
-7.68459
-3.55762
-0.759202
0.947771
1.77246
1.87714
1.50955
-97.382
-98.8505
-100.785
-103.638
-107.437
-112.169
-117.647
-123.476
-129.02
-133.421
-135.703
-134.979
-130.712
-122.729
-111.525
-98.0705
-83.4857
-68.8614
-55.0865
-42.7035
-31.7008
-22.1535
-14.4499
-8.56776
-4.28888
-1.35855
0.4687
1.40986
1.63337
1.40787
-99.9925
-101.644
-103.826
-107.098
-111.462
-116.905
-123.221
-129.969
-136.434
-141.637
-144.443
-143.842
-139.297
-130.603
-118.455
-103.982
-88.4123
-72.9125
-58.3713
-45.206
-33.5071
-23.5808
-15.6365
-9.55624
-5.11036
-2.03442
-0.0731386
0.998784
1.35645
1.28276
-103.097
-104.872
-107.293
-111.007
-115.982
-122.211
-129.463
-137.248
-144.762
-150.875
-154.248
-153.702
-148.777
-139.213
-125.97
-110.354
-93.7009
-77.2371
-61.7966
-47.7478
-35.41
-25.1267
-16.9173
-10.6263
-6.00456
-2.77377
-0.668051
0.5461
1.0507
1.13589
-106.409
-108.243
-110.893
-115.056
-120.669
-127.732
-135.99
-144.902
-153.571
-160.694
-164.68
-164.134
-158.631
-148.091
-133.672
-116.86
-99.0944
-81.5974
-65.1477
-50.2479
-37.3822
-26.7313
-18.252
-11.7498
-6.95094
-3.56133
-1.30468
0.0599745
0.721357
0.969976
-109.501
-111.345
-114.218
-118.825
-125.076
-132.984
-142.272
-152.354
-162.24
-170.44
-175.035
-174.348
-168.158
-156.644
-141.103
-123.132
-104.29
-85.6957
-68.2723
-52.6752
-39.3195
-28.325
-19.5947
-12.8948
-7.92611
-4.37972
-1.97007
-0.450247
0.374439
0.788422
-111.854
-113.698
-116.793
-121.824
-128.678
-137.39
-147.667
-158.885
-169.968
-179.224
-184.367
-183.451
-176.586
-164.222
-147.782
-128.808
-108.881
-89.2923
-71.055
-54.875
-41.1134
-29.8355
-20.8961
-14.026
-8.90434
-5.20965
-2.64978
-0.974099
0.0166935
0.595264
-112.958
-114.811
-118.165
-123.58
-130.95
-140.35
-151.47
-163.651
-175.722
-185.822
-191.395
-190.592
-183.353
-170.358
-153.145
-133.317
-112.478
-92.1094
-73.2875
-56.6992
-42.6612
-31.1919
-22.1063
-15.1075
-9.85862
-6.03052
-3.32818
-1.50019
-0.344473
0.395033
-112.398
-114.406
-118.06
-123.811
-131.605
-141.536
-153.304
-166.224
-179.043
-189.718
-195.612
-195.201
-187.698
-174.233
-156.455
-136.039
-114.685
-93.9022
-74.7906
-58.0203
-43.873
-32.3304
-23.1792
-16.1047
-10.7623
-6.82152
-3.98927
-2.01667
-0.701234
0.192634
-110.087
-112.38
-116.37
-122.398
-130.525
-140.845
-153.045
-166.417
-179.644
-190.555
-196.531
-196.086
-188.517
-175.028
-157.191
-136.696
-115.29
-94.5014
-75.4356
-58.7439
-44.6798
-33.2001
-24.0759
-16.9872
-11.5911
-7.5635
-4.61815
-2.51251
-1.04628
-0.00724603
-106.186
-109.061
-113.305
-119.453
-127.836
-138.413
-150.791
-164.22
-177.33
-187.969
-193.698
-193.238
-185.896
-172.768
-155.314
-135.21
-114.21
-93.8311
-75.1588
-58.8181
-45.0394
-33.7662
-24.7676
-17.7309
-12.3254
-8.24052
-5.20255
-2.97887
-1.37406
-0.201151
58.2102
58.263
58.4033
58.6235
58.9089
59.25
59.64
60.0714
60.5352
61.0207
61.5158
62.0068
62.4776
62.9097
63.2813
63.5668
63.7349
63.7475
63.557
63.1023
62.3033
61.0514
59.1945
56.5103
52.6559
47.0641
38.6934
25.3587
0.47274
-68.1081
57.6046
57.6494
57.7709
57.9621
58.2088
58.5016
58.8333
59.1957
59.5793
59.9727
60.3627
60.7344
61.0703
61.3502
61.5504
61.6423
61.5916
61.3561
60.8827
60.1033
58.9279
57.2345
54.8511
51.5255
46.8695
40.2466
30.5306
15.7714
-5.45184
-35.8287
56.9641
57.0005
57.1025
57.2635
57.4703
57.7133
57.9849
58.2767
58.5783
58.8777
59.1609
59.4118
59.6118
59.7392
59.7684
59.6689
59.4039
58.9281
58.1851
57.1026
55.5867
53.5116
50.7048
46.9242
41.8255
34.9235
25.5826
13.0887
-1.94385
-18.8856
56.2897
56.3176
56.3995
56.5295
56.6954
56.8875
57.0981
57.3181
57.5368
57.7415
57.9176
58.0479
58.113
58.0899
57.9519
57.6672
57.1974
56.4959
55.5051
54.1527
52.3467
49.9681
46.8611
42.8226
37.5939
30.8646
22.3116
11.5582
-1.53941
-17.2997
55.5829
55.6022
55.6636
55.7622
55.8865
56.0272
56.1762
56.3241
56.4598
56.5702
56.64
56.6516
56.5847
56.4158
56.1176
55.6575
54.9971
54.0902
52.8804
51.2988
49.2607
46.6607
43.3679
39.223
34.0388
27.6033
19.6944
10.0364
-1.60899
-14.9925
54.8458
54.8563
54.8971
54.964
55.0465
55.1357
55.2232
55.2994
55.3528
55.3703
55.3362
55.2324
55.0384
54.7306
54.2817
53.6595
52.8265
51.7384
50.3426
48.5762
46.3647
43.6193
40.2353
36.0923
31.0565
24.985
17.7403
9.20048
-0.689197
-11.5322
54.0806
54.0824
54.1026
54.1378
54.1788
54.2168
54.2435
54.2491
54.222
54.149
54.0144
53.8002
53.4858
53.0481
52.4605
51.6919
50.707
49.4647
47.9175
46.0105
43.6809
40.8571
37.4589
33.3996
28.5899
22.9452
16.3988
8.91811
0.506413
-8.54151
53.2901
53.2833
53.2831
53.287
53.2869
53.2747
53.2418
53.1787
53.0738
52.9138
52.6834
52.365
51.9386
51.3817
50.6691
49.7717
48.6571
47.2885
45.6246
43.619
41.2211
38.3754
35.0237
31.1074
26.5718
21.3725
15.4838
8.90724
1.66225
-6.01727
52.4773
52.4621
52.4419
52.4152
52.3751
52.3139
52.2235
52.0942
51.9148
51.6724
51.3521
50.9369
50.408
49.744
48.9213
47.9138
46.6924
45.2252
43.4773
41.4113
38.9878
36.1661
32.906
29.1708
24.9303
20.1657
14.8744
9.07536
2.80206
-3.75334
51.6457
51.6225
51.5829
51.5265
51.4477
51.3395
51.1939
51.0017
50.752
50.4325
50.0291
49.5256
48.9045
48.1463
47.2294
46.1306
44.8249
43.2853
41.4836
39.3906
36.977
34.2145
31.0775
27.5453
23.6048
19.2534
14.5024
9.37997
3.9256
-1.7085
50.7993
50.7683
50.7102
50.6253
50.5095
50.3566
50.1588
49.9075
49.5924
49.2019
48.7227
48.1402
47.438
46.5988
45.6035
44.4321
43.0634
41.4756
39.6467
37.5548
35.1794
32.5022
29.5088
26.1901
22.5443
18.579
14.3128
9.77693
5.01069
0.133318
49.9422
49.904
49.8282
49.7164
49.5657
49.3706
49.1242
48.818
48.4429
47.9879
47.441
46.7889
46.0171
45.1102
44.052
42.8255
41.4136
39.7992
37.9658
35.898
33.5824
31.0088
28.1709
25.0676
21.7045
18.0948
14.2603
10.2318
6.04598
1.79639
49.0791
49.0341
48.9418
48.8047
48.6214
48.3873
48.0959
47.7397
47.3102
46.7977
46.1913
45.4794
44.6492
43.6877
42.5812
41.3159
39.8786
38.2562
36.4371
34.4115
32.1716
29.7132
27.0358
24.1437
21.047
17.7615
14.3097
10.7205
7.02652
3.30155
48.2147
48.1635
48.056
47.8955
47.6821
47.4122
47.08
46.6787
46.2009
45.6379
44.9805
44.2183
43.3408
42.3369
41.1956
39.9063
38.4588
36.8441
35.0546
33.0847
30.9312
28.5942
26.0773
23.3882
20.5392
17.5471
14.4335
11.2246
7.94907
4.66486
47.3544
47.2975
47.1761
46.9942
46.7534
46.4512
46.0824
45.6412
45.1211
44.5149
43.8145
43.0114
42.0968
41.062
39.8983
38.5977
37.1532
35.5588
33.8104
31.9058
29.8452
27.6317
25.2716
22.7743
20.1532
17.425
14.6096
11.7303
8.81166
5.89954
46.5034
46.4415
46.3075
46.1063
45.8411
45.51
45.1089
44.633
44.0767
43.4341
42.6987
41.8634
40.9214
39.8658
38.6904
37.3896
35.9587
34.3946
32.6958
30.8628
28.898
26.8068
24.5969
22.2788
19.8657
17.3736
14.8206
12.2268
9.61342
7.0167
45.6673
45.601
45.4558
45.2376
44.9506
44.5943
44.1654
43.6597
43.0732
42.4009
41.6377
40.7783
39.8175
38.7503
37.5724
36.2802
34.8715
33.3451
31.7016
29.9433
28.0746
26.102
24.034
21.8813
19.6568
17.3751
15.0524
12.7061
10.3543
8.02576
44.8519
44.7818
44.6269
44.3937
44.0879
43.7099
43.2572
42.7268
42.1154
41.4196
40.6355
39.7593
38.7873
37.7161
36.5433
35.2671
33.8868
32.4031
30.8182
29.1357
27.3611
25.5015
23.5659
21.5647
19.5099
17.4149
15.2941
13.1623
11.0348
8.93486
44.0632
43.9898
43.8265
43.5805
43.2586
42.8622
42.3897
41.8391
41.2082
40.4945
39.6956
38.8089
37.8321
36.7634
35.6018
34.3469
32.9995
31.5617
30.0366
28.4289
26.7447
24.9914
23.1779
21.3142
19.4114
17.4814
15.537
13.5909
11.6561
9.75117
43.3071
43.231
43.0606
42.8036
42.4682
42.0566
41.5681
41.0016
40.3557
39.6292
38.8207
37.9289
36.9527
35.8917
34.7458
33.5161
32.2044
30.8137
29.348
27.8126
26.2138
24.5592
22.8572
21.1174
19.3498
17.5652
15.7745
13.989
12.2195
10.4811
42.5897
42.5114
42.335
42.069
41.7225
41.2985
40.7974
40.2186
39.5618
38.8269
38.0133
37.1209
36.1496
35.1
33.9732
32.7711
31.4963
30.1526
28.7445
27.2776
25.7584
24.1942
22.5931
20.964
19.316
17.6587
16.0016
14.3545
12.7266
11.1303
41.9174
41.8372
41.656
41.3825
41.0268
40.5931
40.0822
39.4945
38.8304
38.0906
37.2756
36.386
35.4228
34.3874
33.2816
32.1082
30.8703
29.5722
28.2188
26.8158
25.3696
23.8873
22.3766
20.8456
19.3025
17.756
16.2145
14.6863
13.1794
11.704
41.2964
41.2148
41.0294
40.7497
40.3868
39.9455
39.4273
38.8334
38.1648
37.4231
36.6095
35.7253
34.7724
33.7527
32.6688
31.524
30.3219
29.067
27.7644
26.4199
25.0398
23.6307
22.2
20.755
19.3033
17.8525
16.4102
14.9836
13.5795
12.2064
40.7333
40.6504
40.4614
40.1765
39.8077
39.3607
38.8373
38.2394
37.5687
36.8273
36.017
35.1401
34.1986
33.1953
32.1332
31.0159
29.8474
28.6325
27.3763
26.0843
24.7629
23.4183
22.0574
20.6869
19.3138
17.945
16.5871
15.2464
13.9291
12.6421
40.2349
40.1506
39.9583
39.6688
39.2951
38.8436
38.3166
37.7163
37.045
36.3053
35.4997
34.6307
33.701
32.7138
31.6725
30.5808
29.4431
28.2641
27.049
25.8034
24.5331
23.2442
21.9432
20.6362
19.3297
18.0299
16.7428
15.474
14.2288
13.0132
39.8083
39.7225
39.5264
39.2323
38.8546
38.3999
37.8707
37.2693
36.5987
35.8617
35.0613
34.2004
33.2822
32.31
31.2875
30.2187
29.1081
27.9605
26.7809
25.5748
24.3479
23.106
21.8551
20.6011
19.3498
18.107
16.878
15.6681
14.482
13.3247
39.4618
39.3733
39.1714
38.8717
38.4899
38.0323
37.5013
36.8994
36.2298
35.4958
34.7006
33.8474
32.9396
31.9807
30.9747
29.9256
28.838
27.7166
26.5665
25.393
24.2015
22.9978
21.7873
20.5758
19.3686
18.1711
16.9884
15.825
14.6853
13.5738
39.205
39.1116
38.902
38.5971
38.2124
37.7529
37.2205
36.6183
35.9497
35.2183
34.4275
33.5807
32.6814
31.7333
30.7404
29.707
28.6376
27.5368
26.4098
25.2616
24.0975
22.9231
21.7437
20.5646
19.391
18.2279
17.08
15.9518
14.8472
13.7704
39.0496
38.9343
38.7085
38.399
38.0135
37.5531
37.0202
36.4184
35.7513
35.0227
34.2357
33.394
32.5013
31.5613
30.5781
29.5559
28.4993
27.413
26.3019
25.171
24.0257
22.8712
21.7127
20.5555
19.4044
18.2643
17.1397
16.0348
14.9535
13.8992
39.06
38.8769
38.6226
38.3076
37.9203
37.4575
36.9227
36.32
35.6532
34.9257
34.1409
33.3024
32.4137
31.4789
30.5017
29.4866
28.4379
27.3602
26.2586
25.1379
24.0033
22.8599
21.713
20.5675
19.4284
18.3004
17.1878
16.0948
15.0252
13.9821
-173.074
-152.78
-123.806
-59.128
-65.8737
-72.2418
-37.7972
-50.9963
-61.7105
-35.2683
-47.1486
-56.122
-28.7369
-38.1622
-45.9508
-22.4228
-30.197
-36.9278
-17.5923
-24.0744
-29.7035
-13.5781
-18.9636
-23.6217
-10.0963
-14.5971
-18.4742
-7.07836
-10.8745
-14.1318
-4.45166
-7.68054
-10.4426
-2.14808
-4.91605
-7.27939
-0.116254
-2.50686
-4.54615
1.6832
-0.396038
-2.1694
3.28141
1.46083
-0.0925781
4.70312
3.09858
1.72827
5.96837
4.54501
3.32788
7.09361
5.82269
4.73422
8.09264
6.95023
5.97012
8.97716
7.9432
7.05449
9.75712
8.81466
8.0031
10.4412
9.57582
8.82926
11.0365
10.2357
9.54379
11.5498
10.8029
10.1565
11.9847
11.2823
10.6735
12.3484
11.682
11.1035
12.6379
11.9997
11.4454
12.8657
12.2484
11.7115
13.0144
12.4117
11.8874
13.1116
12.5188
12.0005
-99.6407
-105.566
-109.682
-115.519
-124.018
-134.668
-146.895
-159.925
-172.421
-182.442
-187.734
-187.19
-180.198
-167.661
-150.922
-131.614
-111.445
-91.8767
-73.9418
-58.2253
-44.9364
-34.0157
-25.2438
-18.3276
-12.959
-8.84835
-5.73975
-3.41408
-1.68362
-0.387901
-84.8655
-96.5165
-103.294
-110.654
-119.763
-130.347
-142.051
-154.231
-165.703
-174.816
-179.527
-178.649
-171.864
-159.937
-144.111
-125.933
-106.989
-88.6181
-71.7576
-56.9356
-44.3402
-33.9195
-25.4781
-18.7547
-13.4731
-9.37214
-6.21842
-3.80989
-1.96946
-0.563486
-76.6909
-90.1768
-98.3736
-106.269
-115.474
-125.801
-136.812
-147.899
-158.056
-165.899
-169.652
-168.074
-161.218
-149.861
-135.13
-118.394
-101.033
-84.1994
-68.7036
-55.0057
-43.2771
-33.483
-25.4637
-18.9993
-13.8533
-9.79812
-6.62701
-4.15763
-2.22607
-0.724686
-68.0799
-81.3451
-91.7135
-101.019
-110.455
-120.308
-130.413
-140.239
-148.86
-155.009
-157.293
-154.86
-148.052
-137.539
-124.25
-109.314
-93.8628
-78.8445
-64.9349
-52.5322
-41.7997
-32.7297
-25.2065
-19.058
-14.0921
-10.1181
-6.9581
-4.45149
-2.44945
-0.868873
-56.5719
-69.1301
-80.8843
-91.6488
-101.724
-111.428
-120.765
-129.332
-136.335
-140.7
-141.63
-138.881
-132.69
-123.509
-112.057
-99.2243
-85.907
-72.8664
-60.6633
-49.6475
-39.9844
-31.6993
-24.7238
-18.9358
-14.1883
-10.3284
-7.20767
-4.68805
-2.63719
-0.994532
-45.8614
-56.848
-68.3915
-79.404
-89.5093
-98.8374
-107.381
-114.805
-120.479
-123.633
-124.015
-121.588
-116.453
-108.899
-99.4641
-88.8257
-77.6752
-66.6182
-56.1215
-46.4977
-37.918
-30.4404
-24.0409
-18.6443
-14.146
-10.4291
-7.37433
-4.8657
-2.78793
-1.10074
-36.921
-46.0473
-56.3856
-66.6154
-76.0284
-84.5762
-92.2102
-98.653
-103.442
-106.095
-106.497
-104.695
-100.737
-94.817
-87.3183
-78.7417
-69.6117
-60.4064
-51.5142
-43.2153
-35.6838
-29.0032
-23.1869
-18.1991
-13.9729
-10.4238
-7.45912
-4.98438
-2.90127
-1.18712
-29.4714
-36.9495
-45.7883
-54.7739
-63.1212
-70.6804
-77.3783
-82.9971
-87.212
-89.7014
-90.3762
-89.2624
-86.4051
-81.9413
-76.1398
-69.3624
-62.0035
-54.4385
-46.9889
-39.903
-33.3516
-27.4342
-22.1915
-17.6187
-13.6798
-10.3182
-7.465
-5.04541
-2.97756
-1.25375
-23.291
-29.4513
-36.8698
-44.546
-51.7518
-58.3027
-64.1194
-69.0346
-72.8185
-75.2531
-76.2312
-75.7316
-73.7991
-70.5385
-66.1376
-60.8559
-54.9881
-48.8272
-42.6368
-36.6329
-30.9766
-25.7743
-21.0837
-16.9229
-13.2797
-10.1203
-7.39659
-5.05127
-3.01787
-1.30106
-18.1602
-23.295
-29.5068
-36.0011
-42.1535
-47.7831
-52.8162
-57.1245
-60.5402
-62.9077
-64.1153
-64.1025
-62.9016
-60.5935
-57.3113
-53.2404
-48.6001
-43.6179
-38.5074
-33.4531
-28.6016
-24.0586
-19.8909
-16.1318
-12.7866
-9.83963
-7.25982
-5.00539
-3.02392
-1.32983
-13.8564
-18.1914
-23.4231
-28.9225
-34.1703
-39.0059
-43.366
-47.1514
-50.2352
-52.4998
-53.8415
-54.1847
-53.5412
-51.9701
-49.5664
-46.4628
-42.8219
-38.8188
-34.6252
-30.3957
-26.2598
-22.3176
-18.6388
-15.2655
-12.2154
-9.48655
-7.06165
-4.91209
-2.99796
-1.34115
-10.2044
-13.9072
-18.3526
-23.037
-27.532
-31.7012
-35.4929
-38.8295
-41.6119
-43.7483
-45.148
-45.7365
-45.5072
-44.4996
-42.7807
-40.4456
-37.6141
-34.4203
-31.0003
-27.482
-23.9773
-20.5774
-17.3508
-14.3435
-11.5813
-9.07224
-6.80983
-4.77634
-2.94277
-1.3364
-7.07586
-10.2713
-14.0836
-18.1045
-21.9794
-25.5946
-28.9093
-31.8623
-34.3746
-36.3719
-37.7784
-38.5275
-38.6009
-38.0214
-36.835
-35.1092
-32.9318
-30.4046
-27.6348
-24.7265
-21.7748
-18.8605
-16.0479
-13.3842
-10.8993
-8.60813
-6.51258
-4.60362
-2.86155
-1.31717
-4.37556
-7.15831
-10.4569
-13.936
-17.3004
-20.4561
-23.3709
-25.9968
-28.2697
-30.1286
-31.511
-32.3603
-32.6519
-32.3959
-31.6226
-30.3793
-28.7297
-26.7505
-24.5253
-22.1379
-19.6678
-17.1853
-14.7491
-12.4045
-10.1836
-8.10562
-6.17838
-4.39975
-2.75777
-1.28525
-2.03144
-4.47497
-7.35305
-10.3876
-13.3308
-16.1045
-18.684
-21.0311
-23.0938
-24.8212
-26.1623
-27.0699
-27.5166
-27.504
-27.0507
-26.1891
-24.9648
-23.4353
-21.6649
-19.7208
-17.6682
-15.5674
-13.4704
-11.4199
-9.44779
-7.57579
-5.81572
-4.17074
-2.63515
-1.24254
0.0118249
-2.15061
-4.68205
-7.34964
-9.94384
-12.3993
-14.697
-16.8068
-18.6858
-20.2918
-21.5826
-22.52
-23.0752
-23.2447
-23.0388
-22.4789
-21.5972
-20.436
-19.0448
-17.4764
-15.7842
-14.0189
-12.226
-10.4442
-8.70444
-7.02919
-5.43292
-3.92259
-2.4975
-1.191
1.7976
-0.130385
-2.37428
-4.73743
-7.04121
-9.23062
-11.2912
-13.1987
-14.918
-16.4132
-17.6519
-18.5991
-19.2283
-19.5332
-19.5181
-19.1963
-18.5901
-17.7303
-16.6543
-15.4036
-14.0213
-12.5495
-11.0274
-9.48957
-7.96487
-6.4757
-5.03794
-3.66121
-2.34862
-1.13261
3.36046
1.62906
-0.375117
-2.48455
-4.54577
-6.51215
-8.37258
-10.1078
-11.6885
-13.0847
-14.2694
-15.2134
-15.8922
-16.2972
-16.429
-16.2951
-15.9103
-15.2967
-14.4825
-13.4997
-12.3828
-11.1665
-9.88426
-8.56639
-7.23925
-5.92441
-4.6383
-3.39225
-2.19225
-1.06928
4.72843
3.16253
1.35897
-0.538265
-2.39627
-4.17514
-5.86644
-7.45466
-8.91554
-10.2236
-11.3557
-12.2878
-12.9981
-13.4767
-13.7212
-13.7352
-13.5281
-13.1154
-12.5179
-11.7604
-10.8701
-9.87544
-8.80449
-7.68363
-6.53657
-5.38357
-4.24097
-3.1211
-2.032
-1.00285
5.92448
4.49831
2.86312
1.14379
-0.543556
-2.16451
-3.71264
-5.17549
-6.53267
-7.76246
-8.84512
-9.76034
-10.4891
-11.0209
-11.3516
-11.4818
-11.4171
-11.1681
-10.7498
-10.1811
-9.4836
-8.68022
-7.79442
-6.84889
-5.86472
-4.86059
-3.85235
-2.85278
-1.87128
-0.935075
6.96761
5.65956
4.16587
2.59588
1.05198
-0.435852
-1.86278
-3.21871
-4.48639
-5.6472
-6.68407
-7.57974
-8.31781
-8.88754
-9.28372
-9.50507
-9.55429
-9.43823
-9.16771
-8.75694
-8.22273
-7.58365
-6.85914
-6.06859
-5.23056
-4.36211
-3.47828
-2.59191
-1.71329
-0.867561
7.87368
6.66543
5.29061
3.84592
2.42253
1.04682
-0.277604
-1.54252
-2.73322
-3.8336
-4.82874
-5.70389
-6.44483
-7.04109
-7.48676
-7.7793
-7.91936
-7.91109
-7.76203
-7.48275
-7.0863
-6.5876
-6.0027
-5.3481
-4.64006
-3.89398
-3.12402
-2.34276
-1.56098
-0.801802
8.65558
7.53142
6.25619
4.91634
3.59392
2.31237
1.07434
-0.113408
-1.23823
-2.28605
-3.24376
-4.09861
-4.83821
-5.45253
-5.93534
-6.28324
-6.49549
-6.57424
-6.52456
-6.35419
-6.07323
-5.69361
-5.22857
-4.69212
-4.09846
-3.46147
-2.79433
-2.10921
-1.4171
-0.739152
9.32461
8.27084
7.07856
5.82594
4.58758
3.3846
2.21891
1.09609
0.0271525
-0.975487
-1.90018
-2.73581
-3.47154
-4.09777
-4.60821
-4.99895
-5.26828
-5.41689
-5.44801
-5.36723
-5.1823
-4.90277
-4.53959
-4.10467
-3.6104
-3.06929
-2.49353
-1.89483
-1.28417
-0.680875
9.88843
8.89295
7.76902
6.58818
5.41907
4.28095
3.17515
2.10632
1.08418
0.119827
-0.776268
-1.59419
-2.32467
-2.95833
-3.48901
-3.91253
-4.22653
-4.43065
-4.52676
-4.51882
-4.41277
-4.21627
-3.93842
-3.58938
-3.18004
-2.72166
-2.22554
-1.70286
-1.1645
-0.628087
10.356
9.40781
8.33919
7.21635
6.10323
5.01762
3.96044
2.9356
1.9518
1.01905
0.146851
-0.656049
-1.38039
-2.01841
-2.56388
-3.01235
-3.36099
-3.60874
-3.75646
-3.80688
-3.76457
-3.63572
-3.42795
-3.15003
-2.81159
-2.42284
-1.99429
-1.53659
-1.06044
-0.581943
10.7282
9.81735
8.79211
7.71476
6.64561
5.60134
4.58251
3.59249
2.6392
1.73185
0.879219
0.0894416
-0.629301
-1.26956
-1.82532
-2.29205
-2.66665
-2.94758
-3.13498
-3.23069
-3.23825
-3.16275
-3.01067
-2.78968
-2.5084
-2.17614
-1.80276
-1.39841
-0.973576
-0.543065
11.0157
10.1322
9.13904
8.09528
7.05858
6.04481
5.05432
4.09008
3.15944
2.27102
1.43306
0.653225
-0.0610799
-0.702811
-1.26608
-1.74628
-2.14011
-2.44567
-2.66262
-2.79219
-2.83717
-2.80185
-2.69189
-2.51412
-2.27639
-1.98735
-1.65626
-1.29287
-0.907375
-0.513318
11.2075
10.342
9.37029
8.34939
7.33475
6.34166
5.37038
4.42369
3.50856
2.63325
1.80574
1.03358
0.323645
-0.317812
-0.885086
-1.37351
-1.77964
-2.10136
-2.33799
-2.49033
-2.56067
-2.55275
-2.47163
-2.32358
-2.1159
-1.85674
-1.5549
-1.21973
-0.861125
-0.491399
11.324
10.4629
9.50103
8.49156
7.48763
6.50429
5.54199
4.60344
3.6954
2.8258
2.00224
1.23169
0.521324
-0.121993
-0.692747
-1.1865
-1.59987
-1.93065
-2.17803
-2.34259
-2.42637
-2.4328
-2.36664
-2.23387
-2.04146
-1.7973
-1.50991
-1.18832
-0.841799
-0.480071
)
;

boundaryField
{
    inlet
    {
        type            zeroGradient;
    }
    outlet
    {
        type            fixedValue;
        value           uniform 0;
    }
    flap
    {
        type            zeroGradient;
    }
    upperWall
    {
        type            zeroGradient;
    }
    lowerWall
    {
        type            zeroGradient;
    }
    frontAndBack
    {
        type            empty;
    }
}


// ************************************************************************* //
