/*--------------------------------*- C++ -*----------------------------------*\
| =========                 |                                                 |
| \\      /  F ield         | OpenFOAM: The Open Source CFD Toolbox           |
|  \\    /   O peration     | Version:  2012                                  |
|   \\  /    A nd           | Website:  www.openfoam.com                      |
|    \\/     M anipulation  |                                                 |
\*---------------------------------------------------------------------------*/
FoamFile
{
    version     2.0;
    format      ascii;
    class       pointVectorField;
    location    "0.4";
    object      pointDisplacement;
}
// * * * * * * * * * * * * * * * * * * * * * * * * * * * * * * * * * * * * * //

dimensions      [0 1 0 0 0 0 0];


internalField   nonuniform List<vector> 
5828
(
(0 0 0)
(8.42647e-05 0 0)
(0.000173185 0 0)
(0.000279531 0 0)
(0.000415378 0 0)
(0.00059234 0 0)
(0.000822361 0 0)
(0.00111783 0 0)
(0.00149134 0 0)
(0.00195514 0 0)
(0.00252034 0 0)
(0.00319571 0 0)
(0.00398631 0 0)
(0.0048918 0 0)
(0.00590455 0 0)
(0.0070076 0 0)
(0.00817266 0 0)
(0.00935859 0 0)
(0.0105106 0 0)
(0.0115604 0 0)
(0.0124278 0 0)
(0.0130237 0 0)
(0.013256 0 0)
(0.0130388 0 0)
(0.012303 0 0)
(0.0110119 0 0)
(0.00917947 0 0)
(0.00689888 0 0)
(0.0043997 0 0)
(0.00220276 0 0)
(-1.47198e-18 0 0)
(0 0 0)
(8.26281e-05 0 7.17431e-07)
(0.000170094 0 1.46081e-06)
(0.000274921 0 2.32263e-06)
(0.00040899 0 3.38668e-06)
(0.000583848 0 4.72856e-06)
(0.000811408 0 6.42111e-06)
(0.00110406 0 8.53763e-06)
(0.00147445 0 1.11553e-05)
(0.00193496 0 1.43607e-05)
(0.00249687 0 1.82596e-05)
(0.00316927 0 2.2993e-05)
(0.00395764 0 2.87621e-05)
(0.00486224 0 3.58641e-05)
(0.00587623 0 4.47401e-05)
(0.00698365 0 5.60352e-05)
(0.00815745 0 7.06653e-05)
(0.00935793 0 8.98874e-05)
(0.010532 0 0.000115373)
(0.0116135 0 0.00014934)
(0.0125244 0 0.000194657)
(0.0131784 0 0.000254928)
(0.0134864 0 0.000334667)
(0.0133654 0 0.000439528)
(0.0127505 0 0.000576626)
(0.0116111 0 0.000754771)
(0.0099695 0 0.000983835)
(0.0079311 0 0.00127165)
(0.00573923 0 0.001612)
(0.0039039 0 0.00194442)
(0.00254215 0 0.002288)
(0 0 0)
(8.06136e-05 0 1.41956e-06)
(0.000166318 0 2.89249e-06)
(0.000269311 0 4.60148e-06)
(0.00040126 0 6.71209e-06)
(0.000573656 0 9.37386e-06)
(0.000798418 0 1.27306e-05)
(0.00108802 0 1.69261e-05)
(0.0014553 0 2.21104e-05)
(0.00191296 0 2.845e-05)
(0.0024728 0 3.61459e-05)
(0.00314466 0 4.54638e-05)
(0.0039351 0 5.6782e-05)
(0.00484585 0 7.06588e-05)
(0.00587205 0 8.79256e-05)
(0.00700031 0 0.000109801)
(0.00820676 0 0.000138022)
(0.00945533 0 0.000174968)
(0.0106974 0 0.000223758)
(0.0118725 0 0.000288534)
(0.0129095 0 0.000374627)
(0.0137289 0 0.000488605)
(0.0142499 0 0.000638455)
(0.0143984 0 0.000833768)
(0.0141196 0 0.00108589)
(0.0133972 0 0.00140771)
(0.0122719 0 0.0018109)
(0.0108656 0 0.00229892)
(0.00942274 0 0.00284968)
(0.00837556 0 0.00337106)
(0.00756408 0 0.00380845)
(0 0 0)
(7.99178e-05 0 2.10374e-06)
(0.000165047 0 4.28889e-06)
(0.00026747 0 6.8249e-06)
(0.000398824 0 9.95571e-06)
(0.000570642 0 1.39016e-05)
(0.000794953 0 1.8873e-05)
(0.00108444 0 2.50783e-05)
(0.00145227 0 3.27318e-05)
(0.00191166 0 4.20667e-05)
(0.00247519 0 5.33595e-05)
(0.00315378 0 6.69715e-05)
(0.00395555 0 8.34133e-05)
(0.00488434 0 0.00010344)
(0.00593814 0 0.00012818)
(0.00710734 0 0.000159296)
(0.00837277 0 0.00019917)
(0.00970316 0 0.000250974)
(0.0110564 0 0.000318914)
(0.0123813 0 0.000408612)
(0.0136165 0 0.00052713)
(0.0146936 0 0.000682933)
(0.0155434 0 0.000885921)
(0.016105 0 0.00114723)
(0.0163371 0 0.00147907)
(0.0162353 0 0.00189327)
(0.0158523 0 0.00239598)
(0.015308 0 0.00297812)
(0.0147986 0 0.00359545)
(0.0146023 0 0.00412733)
(0.0144093 0 0.00452112)
(0 0 0)
(7.93438e-05 0 2.76829e-06)
(0.000163983 0 5.64511e-06)
(0.000265946 0 8.98239e-06)
(0.000396877 0 1.30981e-05)
(0.000568384 0 1.82783e-05)
(0.000792661 0 2.47937e-05)
(0.00108267 0 3.29085e-05)
(0.00145205 0 4.28886e-05)
(0.0019147 0 5.50154e-05)
(0.00248419 0 6.96139e-05)
(0.00317291 0 8.70999e-05)
(0.00399097 0 0.000108057)
(0.00494494 0 0.000133348)
(0.00603651 0 0.000164271)
(0.00726109 0 0.000202752)
(0.0086048 0 0.000251514)
(0.0100424 0 0.000314126)
(0.0115416 0 0.000395497)
(0.0130628 0 0.000502099)
(0.0145561 0 0.000641748)
(0.0159663 0 0.000823581)
(0.0172384 0 0.00105773)
(0.0183257 0 0.00135463)
(0.0192004 0 0.0017241)
(0.0198621 0 0.00217264)
(0.0203572 0 0.00269678)
(0.0207756 0 0.00327243)
(0.0212279 0 0.00383863)
(0.0218133 0 0.00427359)
(0.0221076 0 0.0045497)
(0 0 0)
(7.88734e-05 0 3.40832e-06)
(0.000163107 0 6.95027e-06)
(0.000264714 0 1.10552e-05)
(0.000395369 0 1.61096e-05)
(0.000566786 0 2.2459e-05)
(0.000791366 0 3.04264e-05)
(0.00108242 0 4.03207e-05)
(0.00145413 0 5.24439e-05)
(0.00192121 0 6.71034e-05)
(0.00249845 0 8.464e-05)
(0.00319991 0 0.000105476)
(0.00403806 0 0.000130198)
(0.00502266 0 0.000159672)
(0.00615963 0 0.000195211)
(0.00744997 0 0.000238781)
(0.00888559 0 0.000293102)
(0.0104498 0 0.000361862)
(0.0121225 0 0.000450178)
(0.0138748 0 0.000564524)
(0.0156696 0 0.000712549)
(0.0174664 0 0.0009029)
(0.0192245 0 0.00114448)
(0.0209092 0 0.00144533)
(0.0224996 0 0.00181075)
(0.023996 0 0.0022402)
(0.0254179 0 0.0027208)
(0.0267925 0 0.00321804)
(0.0281243 0 0.00366708)
(0.0293357 0 0.00396781)
(0.029971 0 0.00413195)
(0 0 0)
(7.84946e-05 0 4.01931e-06)
(0.000162404 0 8.19452e-06)
(0.000263744 0 1.30264e-05)
(0.000394242 0 1.89636e-05)
(0.000565736 0 2.64036e-05)
(0.000790862 0 3.57126e-05)
(0.00108332 0 4.72318e-05)
(0.00145789 0 6.12818e-05)
(0.00193021 0 7.81719e-05)
(0.00251636 0 9.82234e-05)
(0.00323228 0 0.000121815)
(0.00409301 0 0.00014946)
(0.00511173 0 0.000181922)
(0.00629885 0 0.00022037)
(0.00766087 0 0.000266569)
(0.00919726 0 0.000322997)
(0.0109023 0 0.000393152)
(0.0127657 0 0.000481729)
(0.0147691 0 0.00059446)
(0.0168903 0 0.000738096)
(0.0191033 0 0.000919863)
(0.0213797 0 0.00114639)
(0.0236929 0 0.00142223)
(0.0260236 0 0.00174794)
(0.0283613 0 0.00211672)
(0.0306807 0 0.00250919)
(0.0329318 0 0.00288833)
(0.0350074 0 0.00319801)
(0.0366762 0 0.00337044)
(0.0375253 0 0.00345113)
(0 0 0)
(7.81984e-05 0 4.59742e-06)
(0.000161856 0 9.3695e-06)
(0.000263004 0 1.48816e-05)
(0.00039343 0 2.16376e-05)
(0.000565109 0 3.00791e-05)
(0.000790921 0 4.06048e-05)
(0.00108497 0 5.35755e-05)
(0.00146267 0 6.93127e-05)
(0.00194059 0 8.81033e-05)
(0.00253618 0 0.000110215)
(0.0032673 0 0.000135932)
(0.00415162 0 0.000165627)
(0.00520587 0 0.000199858)
(0.00644504 0 0.000239509)
(0.00788131 0 0.000285955)
(0.00952253 0 0.000341204)
(0.0113731 0 0.000408148)
(0.0134319 0 0.000490573)
(0.0156928 0 0.000593039)
(0.0181477 0 0.000720776)
(0.0207829 0 0.000878945)
(0.02358 0 0.00107145)
(0.0265171 0 0.00129937)
(0.02957 0 0.00155907)
(0.0326991 0 0.00183972)
(0.0358289 0 0.00212003)
(0.0388367 0 0.00236735)
(0.0415063 0 0.00254149)
(0.0434845 0 0.00260706)
(0.0444581 0 0.00261989)
(0 0 0)
(7.79787e-05 0 5.13966e-06)
(0.00016145 0 1.04687e-05)
(0.000262465 0 1.66099e-05)
(0.000392873 0 2.41147e-05)
(0.000564782 0 3.34602e-05)
(0.000791315 0 4.50679e-05)
(0.00108697 0 5.93047e-05)
(0.00146777 0 7.64767e-05)
(0.00195122 0 9.68252e-05)
(0.0025561 0 0.000120533)
(0.00330215 0 0.00014775)
(0.00420961 0 0.000178644)
(0.00529869 0 0.000213486)
(0.00658886 0 0.000252764)
(0.00809815 0 0.000297314)
(0.00984217 0 0.000348461)
(0.0118339 0 0.000408155)
(0.0140827 0 0.000478988)
(0.0165947 0 0.000564055)
(0.0193727 0 0.000666671)
(0.0224132 0 0.000789681)
(0.025705 0 0.000934356)
(0.0292266 0 0.00109896)
(0.0329396 0 0.00127712)
(0.0367715 0 0.00145653)
(0.0405996 0 0.00161811)
(0.04423 0 0.00173795)
(0.0473508 0 0.00179404)
(0.0495209 0 0.00177847)
(0.050546 0 0.00174588)
(0 0 0)
(7.78323e-05 0 5.64402e-06)
(0.000161178 0 1.14878e-05)
(0.000262103 0 1.82038e-05)
(0.000392514 0 2.63834e-05)
(0.000564641 0 3.65307e-05)
(0.000791826 0 4.90802e-05)
(0.00108893 0 6.43929e-05)
(0.00147255 0 8.27442e-05)
(0.00196103 0 0.000104311)
(0.00257439 0 0.000129166)
(0.00333413 0 0.000157291)
(0.00426286 0 0.000188605)
(0.005384 0 0.000223034)
(0.0067212 0 0.000260586)
(0.00829786 0 0.000301462)
(0.0101364 0 0.000346154)
(0.012258 0 0.000395526)
(0.0146816 0 0.000450804)
(0.0174232 0 0.000513433)
(0.0204949 0 0.000584761)
(0.0239016 0 0.000665442)
(0.0276364 0 0.00075455)
(0.0316743 0 0.000848498)
(0.0359602 0 0.000940022)
(0.040392 0 0.00101779)
(0.0448002 0 0.00106743)
(0.048923 0 0.00107536)
(0.0523717 0 0.00103617)
(0.0546481 0 0.000962322)
(0.0556719 0 0.000901321)
(0 0 0)
(7.77589e-05 0 6.10957e-06)
(0.000161035 0 1.24246e-05)
(0.000261903 0 1.96598e-05)
(0.000392313 0 2.84385e-05)
(0.000564596 0 3.92837e-05)
(0.000792276 0 5.26337e-05)
(0.00109053 0 6.88332e-05)
(0.00147642 0 8.81149e-05)
(0.00196906 0 0.000110576)
(0.00258953 0 0.000136164)
(0.00336083 0 0.000164667)
(0.0043077 0 0.000195733)
(0.00545631 0 0.000228907)
(0.00683396 0 0.000263681)
(0.00846867 0 0.000299574)
(0.0103887 0 0.000336189)
(0.012622 0 0.000373267)
(0.0151952 0 0.000410651)
(0.0181328 0 0.000448169)
(0.0214545 0 0.00048537)
(0.0251714 0 0.0005211)
(0.0292792 0 0.000552917)
(0.0337488 0 0.000576487)
(0.038511 0 0.000585222)
(0.0434363 0 0.000570683)
(0.0483119 0 0.000524483)
(0.0528166 0 0.00044254)
(0.0564991 0 0.000331452)
(0.0588236 0 0.000216037)
(0.0598129 0 0.000130837)
(0 0 0)
(7.77626e-05 0 6.5365e-06)
(0.000161026 0 1.32795e-05)
(0.000261864 0 2.09782e-05)
(0.000392253 0 3.02805e-05)
(0.000564589 0 4.1721e-05)
(0.000792534 0 5.57333e-05)
(0.0010915 0 7.26377e-05)
(0.00147894 0 9.26147e-05)
(0.00197453 0 0.000115674)
(0.00260025 0 0.000141625)
(0.00338031 0 0.000170059)
(0.00434112 0 0.000200343)
(0.00551112 0 0.000231636)
(0.00692053 0 0.000262918)
(0.00860107 0 0.000293033)
(0.0105855 0 0.000320727)
(0.0129072 0 0.000344674)
(0.0155988 0 0.00036345)
(0.018691 0 0.00037546)
(0.0222093 0 0.000378786)
(0.0261693 0 0.000370979)
(0.0305692 0 0.000348847)
(0.035377 0 0.00030835)
(0.0405138 0 0.000244842)
(0.04583 0 0.000153993)
(0.0510788 0 3.37755e-05)
(0.0558892 0 -0.000112236)
(0.0597509 0 -0.000270608)
(0.0620922 0 -0.000411985)
(0.0630111 0 -0.000515785)
(0 0 0)
(7.78523e-05 0 6.92608e-06)
(0.000161167 0 1.4055e-05)
(0.000262003 0 2.21631e-05)
(0.000392339 0 3.19159e-05)
(0.000564605 0 4.38525e-05)
(0.000792538 0 5.83955e-05)
(0.0010917 0 7.5834e-05)
(0.0014798 0 9.6291e-05)
(0.00197694 0 0.000119684)
(0.00260568 0 0.000145687)
(0.00339115 0 0.000173694)
(0.00436097 0 0.000202804)
(0.0055452 0 0.000231814)
(0.00697619 0 0.000259227)
(0.00868831 0 0.000283275)
(0.0107176 0 0.00030194)
(0.013101 0 0.000312973)
(0.0158753 0 0.000313894)
(0.0190754 0 0.000301983)
(0.0227309 0 0.000274268)
(0.0268606 0 0.000227562)
(0.0314648 0 0.000158607)
(0.0365119 0 6.44469e-05)
(0.0419199 0 -5.68256e-05)
(0.0475315 0 -0.000204844)
(0.0530825 0 -0.00037528)
(0.0581664 0 -0.000558075)
(0.0622114 0 -0.000736216)
(0.0645848 0 -0.000882376)
(0.0654141 0 -0.000993118)
(0 0 0)
(7.80422e-05 0 7.28059e-06)
(0.000161485 0 1.47558e-05)
(0.000262356 0 2.32219e-05)
(0.000392613 0 3.3356e-05)
(0.000564678 0 4.56954e-05)
(0.000792301 0 6.06464e-05)
(0.0010911 0 7.84627e-05)
(0.0014789 0 9.92078e-05)
(0.00197602 0 0.000122709)
(0.00260537 0 0.000148508)
(0.00339258 0 0.000175822)
(0.00436601 0 0.000203507)
(0.0055567 0 0.00023004)
(0.00699825 0 0.000253516)
(0.0087266 0 0.000271653)
(0.0107796 0 0.000281814)
(0.0131963 0 0.000281024)
(0.0160157 0 0.000266018)
(0.0192749 0 0.0002333)
(0.0230053 0 0.000179278)
(0.0272281 0 0.00010052)
(0.0319454 0 -5.79092e-06)
(0.0371286 0 -0.000141105)
(0.0427004 0 -0.000304397)
(0.0485108 0 -0.000490736)
(0.0543031 0 -0.000689816)
(0.0596654 0 -0.00088529)
(0.0639758 0 -0.00105652)
(0.0664911 0 -0.00118186)
(0.0672712 0 -0.00127061)
(0 0 0)
(7.83529e-05 0 7.60325e-06)
(0.000162018 0 1.53883e-05)
(0.000262979 0 2.41652e-05)
(0.000393149 0 3.46164e-05)
(0.000564896 0 4.72727e-05)
(0.00079192 0 6.25199e-05)
(0.00108979 0 8.0574e-05)
(0.00147632 0 0.00010144)
(0.00197183 0 0.000124859)
(0.0025993 0 0.000150259)
(0.0033845 0 0.000176697)
(0.00435603 0 0.000202827)
(0.00554522 0 0.000226868)
(0.00698611 0 0.000246592)
(0.00871511 0 0.000259331)
(0.0107706 0 0.000261994)
(0.0131921 0 0.000251114)
(0.016019 0 0.000222926)
(0.0192885 0 0.000173514)
(0.0230322 0 9.90635e-05)
(0.0272713 0 -3.71209e-06)
(0.0320095 0 -0.000136901)
(0.0372217 0 -0.00030042)
(0.04284 0 -0.000490743)
(0.0487335 0 -0.000699439)
(0.054679 0 -0.000911809)
(0.0603096 0 -0.00110629)
(0.0650193 0 -0.00125656)
(0.0679448 0 -0.00134151)
(0.0688706 0 -0.00138703)
(0 0 0)
(7.88159e-05 0 7.90064e-06)
(0.000162826 0 1.59656e-05)
(0.00026396 0 2.50129e-05)
(0.00039406 0 3.57253e-05)
(0.0005654 0 4.86227e-05)
(0.000791561 0 6.40672e-05)
(0.00108797 0 8.22362e-05)
(0.00147227 0 0.000103078)
(0.00196459 0 0.000126259)
(0.00258771 0 0.000151105)
(0.00336719 0 0.000176547)
(0.00433133 0 0.00020108)
(0.00551119 0 0.000222731)
(0.00694038 0 0.000239047)
(0.0086548 0 0.000247104)
(0.0106921 0 0.000243539)
(0.0130908 0 0.000224616)
(0.015889 0 0.000186354)
(0.019122 0 0.000124737)
(0.0228194 0 3.60566e-05)
(0.0270004 0 -8.25531e-05)
(0.0316676 0 -0.000232351)
(0.0367977 0 -0.000411972)
(0.0423301 0 -0.000616264)
(0.0481519 0 -0.000835173)
(0.0540788 0 -0.00105311)
(0.0598167 0 -0.00124951)
(0.064876 0 -0.00140285)
(0.0683427 0 -0.00149877)
(0.0703499 0 -0.00141863)
(0 0 0)
(8.42647e-05 0 0)
(0.000173185 0 0)
(0.000279531 0 0)
(0.000415378 0 0)
(0.00059234 0 0)
(0.000822361 0 0)
(0.00111783 0 0)
(0.00149134 0 0)
(0.00195514 0 0)
(0.00252034 0 0)
(0.00319571 0 0)
(0.00398631 0 0)
(0.0048918 0 0)
(0.00590455 0 0)
(0.0070076 0 0)
(0.00817266 0 0)
(0.00935859 0 0)
(0.0105106 0 0)
(0.0115604 0 0)
(0.0124278 0 0)
(0.0130237 0 0)
(0.013256 0 0)
(0.0130388 0 0)
(0.012303 0 0)
(0.0110119 0 0)
(0.00917947 0 0)
(0.00689888 0 0)
(0.0043997 0 0)
(0.00220276 0 0)
(0 0 0)
(0 0 0)
(8.26281e-05 0 7.17431e-07)
(0.000170094 0 1.46081e-06)
(0.000274921 0 2.32263e-06)
(0.00040899 0 3.38668e-06)
(0.000583848 0 4.72856e-06)
(0.000811408 0 6.42111e-06)
(0.00110406 0 8.53763e-06)
(0.00147445 0 1.11553e-05)
(0.00193496 0 1.43607e-05)
(0.00249687 0 1.82596e-05)
(0.00316927 0 2.2993e-05)
(0.00395764 0 2.87621e-05)
(0.00486224 0 3.58641e-05)
(0.00587623 0 4.47401e-05)
(0.00698365 0 5.60352e-05)
(0.00815745 0 7.06653e-05)
(0.00935793 0 8.98874e-05)
(0.010532 0 0.000115373)
(0.0116135 0 0.00014934)
(0.0125244 0 0.000194657)
(0.0131784 0 0.000254928)
(0.0134864 0 0.000334667)
(0.0133654 0 0.000439528)
(0.0127505 0 0.000576626)
(0.0116111 0 0.000754771)
(0.0099695 0 0.000983835)
(0.0079311 0 0.00127165)
(0.00573923 0 0.001612)
(0.0039039 0 0.00194442)
(0.0025422 0 0.00228803)
(0 0 0)
(8.06136e-05 0 1.41956e-06)
(0.000166318 0 2.89249e-06)
(0.000269311 0 4.60148e-06)
(0.00040126 0 6.71209e-06)
(0.000573656 0 9.37386e-06)
(0.000798418 0 1.27306e-05)
(0.00108802 0 1.69261e-05)
(0.0014553 0 2.21104e-05)
(0.00191296 0 2.845e-05)
(0.0024728 0 3.61459e-05)
(0.00314466 0 4.54638e-05)
(0.0039351 0 5.6782e-05)
(0.00484585 0 7.06588e-05)
(0.00587205 0 8.79256e-05)
(0.00700031 0 0.000109801)
(0.00820676 0 0.000138022)
(0.00945533 0 0.000174968)
(0.0106974 0 0.000223758)
(0.0118725 0 0.000288534)
(0.0129095 0 0.000374627)
(0.0137289 0 0.000488605)
(0.0142499 0 0.000638455)
(0.0143984 0 0.000833768)
(0.0141196 0 0.00108589)
(0.0133972 0 0.00140771)
(0.0122719 0 0.0018109)
(0.0108656 0 0.00229892)
(0.00942274 0 0.00284968)
(0.00837556 0 0.00337106)
(0.00756411 0 0.00380849)
(0 0 0)
(7.99178e-05 0 2.10374e-06)
(0.000165047 0 4.28889e-06)
(0.00026747 0 6.8249e-06)
(0.000398824 0 9.95571e-06)
(0.000570642 0 1.39016e-05)
(0.000794953 0 1.8873e-05)
(0.00108444 0 2.50783e-05)
(0.00145227 0 3.27318e-05)
(0.00191166 0 4.20667e-05)
(0.00247519 0 5.33595e-05)
(0.00315378 0 6.69715e-05)
(0.00395555 0 8.34133e-05)
(0.00488434 0 0.00010344)
(0.00593814 0 0.00012818)
(0.00710734 0 0.000159296)
(0.00837277 0 0.00019917)
(0.00970316 0 0.000250974)
(0.0110564 0 0.000318914)
(0.0123813 0 0.000408612)
(0.0136165 0 0.00052713)
(0.0146936 0 0.000682933)
(0.0155434 0 0.000885921)
(0.016105 0 0.00114723)
(0.0163371 0 0.00147907)
(0.0162353 0 0.00189327)
(0.0158523 0 0.00239598)
(0.015308 0 0.00297812)
(0.0147986 0 0.00359545)
(0.0146023 0 0.00412733)
(0.0144094 0 0.00452114)
(0 0 0)
(7.93438e-05 0 2.76829e-06)
(0.000163983 0 5.64511e-06)
(0.000265946 0 8.98239e-06)
(0.000396877 0 1.30981e-05)
(0.000568384 0 1.82783e-05)
(0.000792661 0 2.47937e-05)
(0.00108267 0 3.29085e-05)
(0.00145205 0 4.28886e-05)
(0.0019147 0 5.50154e-05)
(0.00248419 0 6.96139e-05)
(0.00317291 0 8.70999e-05)
(0.00399097 0 0.000108057)
(0.00494494 0 0.000133348)
(0.00603651 0 0.000164271)
(0.00726109 0 0.000202752)
(0.0086048 0 0.000251514)
(0.0100424 0 0.000314126)
(0.0115416 0 0.000395497)
(0.0130628 0 0.000502099)
(0.0145561 0 0.000641748)
(0.0159663 0 0.000823581)
(0.0172384 0 0.00105773)
(0.0183257 0 0.00135463)
(0.0192004 0 0.0017241)
(0.0198621 0 0.00217264)
(0.0203572 0 0.00269678)
(0.0207756 0 0.00327243)
(0.0212279 0 0.00383863)
(0.0218133 0 0.00427359)
(0.0221077 0 0.0045497)
(0 0 0)
(7.88734e-05 0 3.40832e-06)
(0.000163107 0 6.95027e-06)
(0.000264714 0 1.10552e-05)
(0.000395369 0 1.61096e-05)
(0.000566786 0 2.2459e-05)
(0.000791366 0 3.04264e-05)
(0.00108242 0 4.03207e-05)
(0.00145413 0 5.24439e-05)
(0.00192121 0 6.71034e-05)
(0.00249845 0 8.464e-05)
(0.00319991 0 0.000105476)
(0.00403806 0 0.000130198)
(0.00502266 0 0.000159672)
(0.00615963 0 0.000195211)
(0.00744997 0 0.000238781)
(0.00888559 0 0.000293102)
(0.0104498 0 0.000361862)
(0.0121225 0 0.000450178)
(0.0138748 0 0.000564524)
(0.0156696 0 0.000712549)
(0.0174664 0 0.0009029)
(0.0192245 0 0.00114448)
(0.0209092 0 0.00144533)
(0.0224996 0 0.00181075)
(0.023996 0 0.0022402)
(0.0254179 0 0.0027208)
(0.0267925 0 0.00321804)
(0.0281243 0 0.00366708)
(0.0293357 0 0.00396781)
(0.029971 0 0.00413193)
(0 0 0)
(7.84946e-05 0 4.01931e-06)
(0.000162404 0 8.19452e-06)
(0.000263744 0 1.30264e-05)
(0.000394242 0 1.89636e-05)
(0.000565736 0 2.64036e-05)
(0.000790862 0 3.57126e-05)
(0.00108332 0 4.72318e-05)
(0.00145789 0 6.12818e-05)
(0.00193021 0 7.81719e-05)
(0.00251636 0 9.82234e-05)
(0.00323228 0 0.000121815)
(0.00409301 0 0.00014946)
(0.00511173 0 0.000181922)
(0.00629885 0 0.00022037)
(0.00766087 0 0.000266569)
(0.00919726 0 0.000322997)
(0.0109023 0 0.000393152)
(0.0127657 0 0.000481729)
(0.0147691 0 0.00059446)
(0.0168903 0 0.000738096)
(0.0191033 0 0.000919863)
(0.0213797 0 0.00114639)
(0.0236929 0 0.00142223)
(0.0260236 0 0.00174794)
(0.0283613 0 0.00211672)
(0.0306807 0 0.00250919)
(0.0329318 0 0.00288833)
(0.0350074 0 0.00319801)
(0.0366762 0 0.00337044)
(0.0375254 0 0.00345113)
(0 0 0)
(7.81984e-05 0 4.59742e-06)
(0.000161856 0 9.3695e-06)
(0.000263004 0 1.48816e-05)
(0.00039343 0 2.16376e-05)
(0.000565109 0 3.00791e-05)
(0.000790921 0 4.06048e-05)
(0.00108497 0 5.35755e-05)
(0.00146267 0 6.93127e-05)
(0.00194059 0 8.81033e-05)
(0.00253618 0 0.000110215)
(0.0032673 0 0.000135932)
(0.00415162 0 0.000165627)
(0.00520587 0 0.000199858)
(0.00644504 0 0.000239509)
(0.00788131 0 0.000285955)
(0.00952253 0 0.000341204)
(0.0113731 0 0.000408148)
(0.0134319 0 0.000490573)
(0.0156928 0 0.000593039)
(0.0181477 0 0.000720776)
(0.0207829 0 0.000878945)
(0.02358 0 0.00107145)
(0.0265171 0 0.00129937)
(0.02957 0 0.00155907)
(0.0326991 0 0.00183972)
(0.0358289 0 0.00212003)
(0.0388367 0 0.00236735)
(0.0415063 0 0.00254149)
(0.0434845 0 0.00260706)
(0.0444582 0 0.00261989)
(0 0 0)
(7.79787e-05 0 5.13966e-06)
(0.00016145 0 1.04687e-05)
(0.000262465 0 1.66099e-05)
(0.000392873 0 2.41147e-05)
(0.000564782 0 3.34602e-05)
(0.000791315 0 4.50679e-05)
(0.00108697 0 5.93047e-05)
(0.00146777 0 7.64767e-05)
(0.00195122 0 9.68252e-05)
(0.0025561 0 0.000120533)
(0.00330215 0 0.00014775)
(0.00420961 0 0.000178644)
(0.00529869 0 0.000213486)
(0.00658886 0 0.000252764)
(0.00809815 0 0.000297314)
(0.00984217 0 0.000348461)
(0.0118339 0 0.000408155)
(0.0140827 0 0.000478988)
(0.0165947 0 0.000564055)
(0.0193727 0 0.000666671)
(0.0224132 0 0.000789681)
(0.025705 0 0.000934356)
(0.0292266 0 0.00109896)
(0.0329396 0 0.00127712)
(0.0367715 0 0.00145653)
(0.0405996 0 0.00161811)
(0.04423 0 0.00173795)
(0.0473508 0 0.00179404)
(0.0495209 0 0.00177847)
(0.050546 0 0.00174585)
(0 0 0)
(7.78323e-05 0 5.64402e-06)
(0.000161178 0 1.14878e-05)
(0.000262103 0 1.82038e-05)
(0.000392514 0 2.63834e-05)
(0.000564641 0 3.65307e-05)
(0.000791826 0 4.90802e-05)
(0.00108893 0 6.43929e-05)
(0.00147255 0 8.27442e-05)
(0.00196103 0 0.000104311)
(0.00257439 0 0.000129166)
(0.00333413 0 0.000157291)
(0.00426286 0 0.000188605)
(0.005384 0 0.000223034)
(0.0067212 0 0.000260586)
(0.00829786 0 0.000301462)
(0.0101364 0 0.000346154)
(0.012258 0 0.000395526)
(0.0146816 0 0.000450804)
(0.0174232 0 0.000513433)
(0.0204949 0 0.000584761)
(0.0239016 0 0.000665442)
(0.0276364 0 0.00075455)
(0.0316743 0 0.000848498)
(0.0359602 0 0.000940022)
(0.040392 0 0.00101779)
(0.0448002 0 0.00106743)
(0.048923 0 0.00107536)
(0.0523717 0 0.00103617)
(0.0546481 0 0.000962322)
(0.055672 0 0.000901287)
(0 0 0)
(7.77589e-05 0 6.10957e-06)
(0.000161035 0 1.24246e-05)
(0.000261903 0 1.96598e-05)
(0.000392313 0 2.84385e-05)
(0.000564596 0 3.92837e-05)
(0.000792276 0 5.26337e-05)
(0.00109053 0 6.88332e-05)
(0.00147642 0 8.81149e-05)
(0.00196906 0 0.000110576)
(0.00258953 0 0.000136164)
(0.00336083 0 0.000164667)
(0.0043077 0 0.000195733)
(0.00545631 0 0.000228907)
(0.00683396 0 0.000263681)
(0.00846867 0 0.000299574)
(0.0103887 0 0.000336189)
(0.012622 0 0.000373267)
(0.0151952 0 0.000410651)
(0.0181328 0 0.000448169)
(0.0214545 0 0.00048537)
(0.0251714 0 0.0005211)
(0.0292792 0 0.000552917)
(0.0337488 0 0.000576487)
(0.038511 0 0.000585222)
(0.0434363 0 0.000570683)
(0.0483119 0 0.000524483)
(0.0528166 0 0.00044254)
(0.0564991 0 0.000331452)
(0.0588236 0 0.000216037)
(0.0598129 0 0.000130843)
(0 0 0)
(7.77626e-05 0 6.5365e-06)
(0.000161026 0 1.32795e-05)
(0.000261864 0 2.09782e-05)
(0.000392253 0 3.02805e-05)
(0.000564589 0 4.1721e-05)
(0.000792534 0 5.57333e-05)
(0.0010915 0 7.26377e-05)
(0.00147894 0 9.26147e-05)
(0.00197453 0 0.000115674)
(0.00260025 0 0.000141625)
(0.00338031 0 0.000170059)
(0.00434112 0 0.000200343)
(0.00551112 0 0.000231636)
(0.00692053 0 0.000262918)
(0.00860107 0 0.000293033)
(0.0105855 0 0.000320727)
(0.0129072 0 0.000344674)
(0.0155988 0 0.00036345)
(0.018691 0 0.00037546)
(0.0222093 0 0.000378786)
(0.0261693 0 0.000370979)
(0.0305692 0 0.000348847)
(0.035377 0 0.00030835)
(0.0405138 0 0.000244842)
(0.04583 0 0.000153993)
(0.0510788 0 3.37755e-05)
(0.0558892 0 -0.000112236)
(0.0597509 0 -0.000270608)
(0.0620922 0 -0.000411985)
(0.0630111 0 -0.000515812)
(0 0 0)
(7.78523e-05 0 6.92608e-06)
(0.000161167 0 1.4055e-05)
(0.000262003 0 2.21631e-05)
(0.000392339 0 3.19159e-05)
(0.000564605 0 4.38525e-05)
(0.000792538 0 5.83955e-05)
(0.0010917 0 7.5834e-05)
(0.0014798 0 9.6291e-05)
(0.00197694 0 0.000119684)
(0.00260568 0 0.000145687)
(0.00339115 0 0.000173694)
(0.00436097 0 0.000202804)
(0.0055452 0 0.000231814)
(0.00697619 0 0.000259227)
(0.00868831 0 0.000283275)
(0.0107176 0 0.00030194)
(0.013101 0 0.000312973)
(0.0158753 0 0.000313894)
(0.0190754 0 0.000301983)
(0.0227309 0 0.000274268)
(0.0268606 0 0.000227562)
(0.0314648 0 0.000158607)
(0.0365119 0 6.44469e-05)
(0.0419199 0 -5.68256e-05)
(0.0475315 0 -0.000204844)
(0.0530825 0 -0.00037528)
(0.0581664 0 -0.000558075)
(0.0622114 0 -0.000736216)
(0.0645848 0 -0.000882376)
(0.0654141 0 -0.000993151)
(0 0 0)
(7.80422e-05 0 7.28059e-06)
(0.000161485 0 1.47558e-05)
(0.000262356 0 2.32219e-05)
(0.000392613 0 3.3356e-05)
(0.000564678 0 4.56954e-05)
(0.000792301 0 6.06464e-05)
(0.0010911 0 7.84627e-05)
(0.0014789 0 9.92078e-05)
(0.00197602 0 0.000122709)
(0.00260537 0 0.000148508)
(0.00339258 0 0.000175822)
(0.00436601 0 0.000203507)
(0.0055567 0 0.00023004)
(0.00699825 0 0.000253516)
(0.0087266 0 0.000271653)
(0.0107796 0 0.000281814)
(0.0131963 0 0.000281024)
(0.0160157 0 0.000266018)
(0.0192749 0 0.0002333)
(0.0230053 0 0.000179278)
(0.0272281 0 0.00010052)
(0.0319454 0 -5.79092e-06)
(0.0371286 0 -0.000141105)
(0.0427004 0 -0.000304397)
(0.0485108 0 -0.000490736)
(0.0543031 0 -0.000689816)
(0.0596654 0 -0.00088529)
(0.0639758 0 -0.00105652)
(0.0664911 0 -0.00118186)
(0.0672712 0 -0.00127064)
(0 0 0)
(7.83529e-05 0 7.60325e-06)
(0.000162018 0 1.53883e-05)
(0.000262979 0 2.41652e-05)
(0.000393149 0 3.46164e-05)
(0.000564896 0 4.72727e-05)
(0.00079192 0 6.25199e-05)
(0.00108979 0 8.0574e-05)
(0.00147632 0 0.00010144)
(0.00197183 0 0.000124859)
(0.0025993 0 0.000150259)
(0.0033845 0 0.000176697)
(0.00435603 0 0.000202827)
(0.00554522 0 0.000226868)
(0.00698611 0 0.000246592)
(0.00871511 0 0.000259331)
(0.0107706 0 0.000261994)
(0.0131921 0 0.000251114)
(0.016019 0 0.000222926)
(0.0192885 0 0.000173514)
(0.0230322 0 9.90635e-05)
(0.0272713 0 -3.71209e-06)
(0.0320095 0 -0.000136901)
(0.0372217 0 -0.00030042)
(0.04284 0 -0.000490743)
(0.0487335 0 -0.000699439)
(0.054679 0 -0.000911809)
(0.0603096 0 -0.00110629)
(0.0650193 0 -0.00125656)
(0.0679448 0 -0.00134151)
(0.0688706 0 -0.00138706)
(0 0 0)
(7.88159e-05 0 7.90064e-06)
(0.000162826 0 1.59656e-05)
(0.00026396 0 2.50129e-05)
(0.00039406 0 3.57253e-05)
(0.0005654 0 4.86227e-05)
(0.000791561 0 6.40672e-05)
(0.00108797 0 8.22362e-05)
(0.00147227 0 0.000103078)
(0.00196459 0 0.000126259)
(0.00258771 0 0.000151105)
(0.00336719 0 0.000176547)
(0.00433133 0 0.00020108)
(0.00551119 0 0.000222731)
(0.00694038 0 0.000239047)
(0.0086548 0 0.000247104)
(0.0106921 0 0.000243539)
(0.0130908 0 0.000224616)
(0.015889 0 0.000186354)
(0.019122 0 0.000124737)
(0.0228194 0 3.60566e-05)
(0.0270004 0 -8.25531e-05)
(0.0316676 0 -0.000232351)
(0.0367977 0 -0.000411972)
(0.0423301 0 -0.000616264)
(0.0481519 0 -0.000835173)
(0.0540788 0 -0.00105311)
(0.0598167 0 -0.00124951)
(0.064876 0 -0.00140285)
(0.0683427 0 -0.00149877)
(0.0703499 0 -0.00141863)
(-3.61664e-17 0 0)
(0.00246206 0 0)
(0.00539159 0 0)
(0.00868813 0 0)
(0.0115953 0 0)
(0.0138029 0 0)
(0.0152301 0 0)
(0.0159163 0 0)
(0.0159602 0 0)
(0.0154845 0 0)
(0.0146146 0 0)
(0.0134679 0 0)
(0.0121484 0 0)
(0.0107444 0 0)
(0.00932773 0 0)
(0.00795527 0 0)
(0.00666894 0 0)
(0.00549723 0 0)
(0.00445665 0 0)
(0.00355365 0 0)
(0.00278682 0 0)
(0.00214892 0 0)
(0.00162876 0 0)
(0.00121267 0 0)
(0.00088587 0 0)
(0.000633376 0 0)
(0.000440672 0 0)
(0.000293983 0 0)
(0.000180205 0 0)
(8.64619e-05 0 0)
(0 0 0)
(0.00244191 0 -0.00253868)
(0.00415604 0 -0.0023222)
(0.00682036 0 -0.00210519)
(0.00983099 0 -0.00179943)
(0.0124855 0 -0.00148993)
(0.0144829 0 -0.00120898)
(0.0157403 0 -0.000965817)
(0.0162907 0 -0.000760432)
(0.0162271 0 -0.000589562)
(0.0156681 0 -0.000449678)
(0.0147347 0 -0.000336862)
(0.0135406 0 -0.000247235)
(0.0121867 0 -0.000177157)
(0.0107582 0 -0.000123276)
(0.00932507 0 -8.27033e-05)
(0.00794212 0 -5.29199e-05)
(0.00664983 0 -3.16591e-05)
(0.00547549 0 -1.70086e-05)
(0.00443461 0 -7.34667e-06)
(0.00353283 0 -1.33653e-06)
(0.00276809 0 2.09044e-06)
(0.00213273 0 3.76387e-06)
(0.00161521 0 4.3082e-06)
(0.00120167 0 4.17675e-06)
(0.000877185 0 3.68429e-06)
(0.000626734 0 3.03701e-06)
(0.000435787 0 2.35868e-06)
(0.000290603 0 1.71218e-06)
(0.000178137 0 1.11618e-06)
(8.55575e-05 0 5.56996e-07)
(0 0 0)
(0.0072439 0 -0.0044959)
(0.00862049 0 -0.00423034)
(0.0107356 0 -0.00386658)
(0.0130639 0 -0.00335111)
(0.0150689 0 -0.00280612)
(0.0165061 0 -0.00229553)
(0.0172988 0 -0.00184433)
(0.0174714 0 -0.00145811)
(0.0171072 0 -0.00113419)
(0.0163124 0 -0.000867244)
(0.0151966 0 -0.00065087)
(0.0138634 0 -0.0004783)
(0.0124055 0 -0.000342992)
(0.0109008 0 -0.000238777)
(0.00941224 0 -0.000160144)
(0.00799015 0 -0.000102285)
(0.00667133 0 -6.09525e-05)
(0.00547996 0 -3.2481e-05)
(0.00442902 0 -1.37248e-05)
(0.00352198 0 -2.08434e-06)
(0.00275517 0 4.52172e-06)
(0.00211973 0 7.71171e-06)
(0.00160329 0 8.70494e-06)
(0.0011914 0 8.387e-06)
(0.00086877 0 7.37279e-06)
(0.000620143 0 6.06478e-06)
(0.000430878 0 4.70395e-06)
(0.000287198 0 3.41195e-06)
(0.000176074 0 2.22362e-06)
(8.46735e-05 0 1.10998e-06)
(0 0 0)
(0.0139002 0 -0.00588949)
(0.0148471 0 -0.00561695)
(0.0163641 0 -0.00518713)
(0.0178512 0 -0.0045526)
(0.0189919 0 -0.00385555)
(0.0196457 0 -0.00318324)
(0.019767 0 -0.0025761)
(0.0193833 0 -0.00204813)
(0.0185705 0 -0.00160054)
(0.0174186 0 -0.00122845)
(0.0160221 0 -0.000924655)
(0.0144709 0 -0.000680923)
(0.012846 0 -0.00048891)
(0.0112157 0 -0.000340578)
(0.00963421 0 -0.000228383)
(0.00814357 0 -0.000145568)
(0.00677455 0 -8.62755e-05)
(0.00554756 0 -4.54065e-05)
(0.00447231 0 -1.85173e-05)
(0.00354897 0 -1.87863e-06)
(0.00277147 0 7.50205e-06)
(0.00212922 0 1.19578e-05)
(0.00160858 0 1.32505e-05)
(0.0011942 0 1.26615e-05)
(0.000870164 0 1.10811e-05)
(0.000620792 0 9.09152e-06)
(0.000431171 0 7.04066e-06)
(0.000287351 0 5.10257e-06)
(0.000176188 0 3.32453e-06)
(8.47526e-05 0 1.66005e-06)
(0 0 0)
(0.0215003 0 -0.00676353)
(0.0220596 0 -0.00650973)
(0.022954 0 -0.00605858)
(0.0235559 0 -0.00537497)
(0.0237495 0 -0.00460089)
(0.0235079 0 -0.00383468)
(0.0228414 0 -0.00312861)
(0.0217954 0 -0.00250476)
(0.0204365 0 -0.00196867)
(0.0188429 0 -0.00151816)
(0.0170944 0 -0.00114697)
(0.0152665 0 -0.000846885)
(0.0134273 0 -0.000608974)
(0.0116339 0 -0.000424322)
(0.00993112 0 -0.000284228)
(0.00835122 0 -0.000180587)
(0.00691657 0 -0.000106221)
(0.00564242 0 -5.48981e-05)
(0.00453446 0 -2.1174e-05)
(0.00358881 0 -3.86717e-07)
(0.00279644 0 1.12262e-05)
(0.00214449 0 1.66123e-05)
(0.00161769 0 1.80049e-05)
(0.00119951 0 1.70319e-05)
(0.000873193 0 1.48254e-05)
(0.000622498 0 1.21257e-05)
(0.000432137 0 9.37347e-06)
(0.000287914 0 6.78669e-06)
(0.000176525 0 4.4203e-06)
(8.49247e-05 0 2.20759e-06)
(0 0 0)
(0.0293529 0 -0.0072129)
(0.0295752 0 -0.00697762)
(0.0298714 0 -0.00652927)
(0.0296264 0 -0.00584303)
(0.0288909 0 -0.0050499)
(0.0277448 0 -0.00424826)
(0.0262596 0 -0.00349527)
(0.0245082 0 -0.00281934)
(0.0225575 0 -0.00223023)
(0.0204772 0 -0.001729)
(0.0183351 0 -0.00131168)
(0.016194 0 -0.00097126)
(0.0141094 0 -0.000699388)