/*--------------------------------*- C++ -*----------------------------------*\
| =========                 |                                                 |
| \\      /  F ield         | OpenFOAM: The Open Source CFD Toolbox           |
|  \\    /   O peration     | Version:  2012                                  |
|   \\  /    A nd           | Website:  www.openfoam.com                      |
|    \\/     M anipulation  |                                                 |
\*---------------------------------------------------------------------------*/
FoamFile
{
    version     2.0;
    format      ascii;
    class       volVectorField;
    location    "0.4";
    object      U;
}
// * * * * * * * * * * * * * * * * * * * * * * * * * * * * * * * * * * * * * //

dimensions      [0 1 -1 0 0 0 0];


internalField   nonuniform List<vector> 
2790
(
(9.94504 4.42549e-22 0.0196579)
(9.88194 9.00939e-22 0.0278191)
(9.79016 -9.16834e-22 0.0333073)
(9.67627 0 0.0389338)
(9.54579 0 0.0447607)
(9.39962 -9.99162e-22 0.0506972)
(9.23701 -2.06794e-21 0.0568206)
(9.05721 2.14599e-21 0.0632269)
(8.85969 2.23313e-21 0.0699751)
(8.64393 0 0.0771006)
(8.40935 -4.87533e-21 0.0846345)
(8.15539 0 0.0926131)
(7.88147 -5.378e-21 0.101084)
(7.58703 0 0.11011)
(7.27152 0 0.119769)
(6.93442 -1.27091e-20 0.130153)
(6.57524 0 0.141354)
(6.19362 0 0.153457)
(5.78939 0 0.166527)
(5.3627 0 0.180593)
(4.91417 -7.0948e-20 0.195627)
(4.44501 -7.65048e-20 0.211532)
(3.95719 0 0.228142)
(3.45349 -3.62583e-19 0.245246)
(2.93742 -4.00515e-19 0.262646)
(2.41306 8.43424e-19 0.280297)
(1.88459 0 0.298523)
(1.35596 0 0.318165)
(0.814 0 0.342819)
(0.374433 -4.19938e-18 0.363621)
(9.99959 -1.32364e-21 0.0380318)
(9.98773 8.93454e-22 0.0570628)
(9.95078 -1.82448e-21 0.0711961)
(9.89103 1.85161e-21 0.0860501)
(9.8125 0 0.101861)
(9.71601 9.80222e-22 0.11842)
(9.60078 2.0218e-21 0.135905)
(9.46587 -2.09087e-21 0.154562)
(9.31043 6.58476e-21 0.174558)
(9.13359 -1.80344e-20 0.195994)
(8.93443 4.4986e-21 0.218941)
(8.712 1.96479e-20 0.243464)
(8.46537 5.24783e-21 0.26963)
(8.19366 -2.73721e-21 0.297517)
(7.89605 1.43486e-20 0.327219)
(7.57176 2.4538e-20 0.358833)
(7.22013 -5.05555e-20 0.392437)
(6.84064 5.39665e-20 0.428055)
(6.43299 -5.74625e-20 0.465644)
(5.99719 -6.13616e-20 0.505036)
(5.53368 6.5945e-20 0.545889)
(5.04345 2.12036e-19 0.587651)
(4.52815 0 0.629556)
(3.9901 -1.33186e-18 0.670666)
(3.4322 1.77253e-18 0.709978)
(2.85769 0 0.746666)
(2.26962 3.40264e-18 0.780499)
(1.67089 3.73957e-18 0.812287)
(1.04561 -1.60687e-17 0.84748)
(0.496487 -1.12394e-18 0.873416)
(9.99665 -1.75645e-21 0.0387001)
(9.98167 0 0.0663861)
(9.9464 2.71879e-21 0.0901431)
(9.89091 -2.7692e-21 0.114867)
(9.81784 0 0.141227)
(9.72806 9.79675e-22 0.169159)
(9.62104 -4.99635e-21 0.198928)
(9.49587 0 0.230905)
(9.35168 8.5492e-21 0.265375)
(9.18753 7.74672e-21 0.30253)
(9.00237 -3.52918e-21 0.342513)
(8.79511 1.45165e-20 0.385441)
(8.56462 4.65555e-23 0.431431)
(8.3098 0 0.480611)
(8.02955 4.48958e-20 0.533131)
(7.72284 -4.60633e-20 0.589152)
(7.38868 2.46668e-20 0.648804)
(7.02619 -2.63297e-19 0.712154)
(6.63458 8.31176e-19 0.779171)
(6.21333 -2.87975e-19 0.849639)
(5.76222 1.24717e-19 0.923075)
(5.28144 -1.3427e-19 0.998666)
(4.7717 2.85976e-19 1.07524)
(4.23429 0 1.15132)
(3.671 -3.34168e-19 1.22521)
(3.08396 0 1.29529)
(2.47542 0 1.36052)
(1.84908 6.8336e-18 1.42098)
(1.19168 -6.44974e-18 1.48192)
(0.583627 9.62752e-18 1.52991)
(9.99506 1.75593e-21 0.0432528)
(9.97781 0 0.0809144)
(9.94221 -2.25895e-21 0.11535)
(9.88776 5.97572e-21 0.150116)
(9.81616 -9.46988e-22 0.186494)
(9.72822 4.81692e-21 0.224858)
(9.62359 -3.4517e-21 0.265665)
(9.50152 -4.43703e-22 0.309449)
(9.36121 -8.54941e-21 0.356664)
(9.20182 -8.78953e-21 0.407654)
(9.02239 -9.20775e-21 0.462692)
(8.8219 2.85495e-20 0.522008)
(8.59927 -3.93571e-20 0.58582)
(8.35343 -4.1824e-20 0.654358)
(8.08325 1.30372e-19 0.727877)
(7.78763 -2.73674e-19 0.806643)
(7.46549 2.36166e-19 0.890901)
(7.11571 -4.08083e-19 0.980838)
(6.73718 -1.17768e-19 1.07652)
(6.32895 4.43931e-19 1.1778)
(5.89026 -1.20106e-19 1.2842)
(5.42055 1.28363e-18 1.3948)
(4.91966 -3.81604e-18 1.5082)
(4.38784 2.30311e-18 1.6225)
(3.82596 6.20744e-19 1.7354)
(3.23536 6.68432e-19 1.84433)
(2.61794 -7.21865e-19 1.94697)
(1.97906 0 2.0416)
(1.31165 -7.69564e-18 2.13033)
(0.663756 -8.4124e-18 2.19757)
(9.99431 0 0.0492537)
(9.9758 0 0.0953013)
(9.93994 -3.5832e-21 0.138916)
(9.88637 -1.31801e-23 0.182739)
(9.81628 3.26195e-21 0.228412)
(9.73023 -1.10117e-20 0.276699)
(9.62793 1.57458e-20 0.32822)
(9.5087 0 0.383613)
(9.37181 6.23235e-21 0.443439)
(9.21644 2.14388e-21 0.508146)
(9.04171 -1.78743e-20 0.578088)
(8.84666 0 0.653575)
(8.63029 1.92989e-20 0.734904)
(8.39156 8.17838e-20 0.82239)
(8.12938 -4.1409e-20 0.91639)
(7.84266 0 1.01729)
(7.53026 -4.65134e-22 1.1255)
(7.19087 -9.66923e-20 1.24137)
(6.82319 -4.14826e-19 1.36514)
(6.42596 1.30028e-18 1.49682)
(5.99789 -2.04619e-19 1.63605)
(5.53781 -3.15784e-18 1.78197)
(5.04474 4.37009e-18 1.93304)
(4.51806 -4.10736e-18 2.087)
(3.95775 2.30891e-18 2.24084)
(3.3646 4.4193e-18 2.39075)
(2.74049 -4.67546e-18 2.53237)
(2.092 0 2.66101)
(1.42029 -1.26037e-17 2.77303)
(0.740622 1.37136e-17 2.84742)
(9.99398 -1.08713e-22 0.0559074)
(9.97492 1.09809e-22 0.109767)
(9.93918 1.51741e-23 0.1621)
(9.88675 -3.64185e-21 0.214916)
(9.81849 -3.71913e-21 0.26989)
(9.73475 7.61514e-21 0.328022)
(9.63525 -7.32342e-21 0.390078)
(9.51937 1.52315e-21 0.456798)
(9.38641 -6.16326e-21 0.528847)
(9.23561 -2.12154e-20 0.606774)
(9.06611 1.76963e-20 0.691033)
(8.87702 -1.84757e-20 0.782023)
(8.66738 1.9219e-20 0.880134)
(8.43618 -1.18862e-19 0.985787)
(8.18235 -4.32169e-20 1.09946)
(7.9048 4.21428e-20 1.22168)
(7.60229 -1.82012e-19 1.35306)
(7.27336 2.79741e-19 1.49418)
(6.91656 0 1.64551)
(6.53025 -9.4054e-19 1.80728)
(6.11263 1.07866e-18 1.97939)
(5.6619 2.27123e-19 2.16112)
(5.17627 -1.71897e-18 2.35093)
(4.65419 4.10245e-18 2.54627)
(4.09456 -2.71335e-18 2.74323)
(3.49753 2.87661e-19 2.93645)
(2.86487 0 3.11895)
(2.20321 0 3.28213)
(1.52225 1.78773e-19 3.41522)
(0.812921 0 3.48666)
(9.99388 0 0.0628229)
(9.97477 -3.26814e-21 0.124202)
(9.93954 3.33323e-21 0.18479)
(9.8885 3.59803e-21 0.246239)
(9.82237 0 0.310165)
(9.74136 7.50249e-21 0.377741)
(9.64516 0 0.449899)
(9.53322 0 0.527496)
(9.40487 2.03316e-20 0.611301)
(9.2594 1.26843e-20 0.70196)
(9.096 -1.72457e-20 0.800014)
(8.91381 1.78233e-20 0.905946)
(8.71192 1.8638e-20 1.02023)
(8.48936 7.78218e-20 1.1434)
(8.24506 -7.90502e-20 1.27605)
(7.97789 4.18148e-20 1.41889)
(7.68652 -4.35696e-20 1.57275)
(7.36941 -4.54846e-19 1.73848)
(7.02489 1.1356e-18 1.91685)
(6.65087 -7.79521e-19 2.10845)
(6.24507 0 2.31352)
(5.80498 -2.18339e-18 2.53168)
(5.32785 -2.6661e-19 2.76155)
(4.81097 1.65765e-18 3.00037)
(4.2519 2.49949e-19 3.24341)
(3.64965 -2.71763e-19 3.48361)
(3.00518 2.82083e-19 3.71091)
(2.32401 0 3.9122)
(1.62287 -2.49457e-19 4.06921)
(0.881039 -5.799e-18 4.1341)
(9.99393 0 0.0697728)
(9.9751 6.83783e-21 0.138429)
(9.94073 -1.10961e-22 0.206845)
(9.89136 -2.24052e-23 0.276525)
(9.82768 7.49689e-21 0.349034)
(9.74979 -7.4708e-21 0.425674)
(9.65738 0 0.507522)
(9.54995 1.96823e-21 0.59555)
(9.42688 -1.80983e-20 0.690619)
(9.28751 0 0.793464)
(9.13108 3.42422e-20 0.904707)
(8.95679 -3.50014e-20 1.02491)
(8.76378 3.66076e-20 1.15464)
(8.55111 -3.70933e-20 1.29454)
(8.31775 3.85084e-20 1.44534)
(8.06252 -3.9887e-20 1.60797)
(7.78405 3.37521e-19 1.78347)
(7.48072 -2.12614e-19 1.97302)
(7.15057 -2.75195e-19 2.17779)
(6.79119 1.12907e-18 2.39883)
(6.39976 -7.73171e-19 2.6369)
(5.97295 1.85183e-18 2.89212)
(5.50693 -3.40453e-18 3.16352)
(4.99748 1.76655e-18 3.44842)
(4.44044 -4.00691e-18 3.7416)
(3.83271 3.9171e-18 4.0344)
(3.17332 -2.65292e-19 4.31352)
(2.4655 6.84939e-20 4.56068)
(1.72979 7.66212e-20 4.74994)
(0.947322 5.3298e-18 4.8112)
(9.99407 -3.40524e-21 0.0766139)
(9.97577 -3.35156e-21 0.152292)
(9.94257 -1.08964e-22 0.228135)
(9.89515 -3.55878e-21 0.305628)
(9.83422 -7.18918e-21 0.386319)
(9.75983 -5.72692e-23 0.471598)
(9.67167 9.4714e-22 0.562669)
(9.56928 1.24429e-20 0.660612)
(9.45212 1.96035e-21 0.766375)
(9.31957 -8.17673e-21 0.880775)
(9.17096 8.26448e-21 1.00451)
(9.00554 -1.70442e-20 1.13822)
(8.82252 -1.81385e-20 1.28256)
(8.62101 1.80142e-20 1.43828)
(8.40003 -1.13891e-19 1.60628)
(8.15843 -4.09059e-20 1.78767)
(7.8948 3.61026e-19 1.98379)
(7.60746 1.29215e-19 2.19616)
(7.29427 -4.27095e-19 2.42644)
(6.95252 -4.3885e-20 2.67626)
(6.5789 0 2.94707)
(6.16924 9.39605e-20 3.23976)
(5.7185 0 3.55415)
(5.22072 0 3.88816)
(4.66932 0 4.23665)
(4.05791 -5.49006e-20 4.58999)
(3.382 7.21959e-21 4.93191)
(2.64085 3.9745e-18 5.23829)
(1.85378 -4.33673e-18 5.47465)
(1.01633 3.47064e-20 5.54224)
(9.99427 2.25598e-23 0.083248)
(9.9767 -5.35934e-23 0.165658)
(9.94492 -3.39809e-21 0.248534)
(9.89972 -7.00391e-21 0.333408)
(9.84183 7.11981e-21 0.421837)
(9.77128 0 0.515285)
(9.68778 0 0.615063)
(9.59093 -1.52514e-20 0.722347)
(9.48026 0 0.838171)
(9.35522 -8.023e-21 0.963422)
(9.21521 8.09904e-21 1.09887)
(9.05958 2.21296e-22 1.24522)
(8.8876 1.74135e-20 1.40322)
(8.69848 -1.72559e-20 1.57372)
(8.49132 0 1.75779)
(8.26502 1.32776e-19 1.95674)
(8.01823 -3.28536e-19 2.1722)
(7.74925 1.57403e-19 2.40609)
(7.45587 0 2.6606)
(7.13522 6.33521e-20 2.93809)
(6.78356 -6.98051e-19 3.24086)
(6.39603 6.1671e-19 3.57092)
(5.96639 -2.24701e-20 3.92937)
(5.48674 -1.52004e-18 4.31546)
(4.94745 3.10913e-18 4.72522)
(4.33763 -1.56022e-18 5.14928)
(3.64695 4.45397e-20 5.5696)
(2.86779 -1.08277e-19 5.9561)
(2.01083 3.86009e-18 6.26396)
(1.09608 -4.30554e-18 6.35773)
(9.99453 6.73352e-21 0.0896045)
(9.97783 3.37957e-21 0.178419)
(9.94769 3.43607e-21 0.267925)
(9.90495 6.77062e-23 0.35973)
(9.85035 -5.79674e-23 0.455422)
(9.78396 1.12978e-22 0.556529)
(9.70551 -1.13922e-22 0.664454)
(9.61466 1.48745e-20 0.78046)
(9.51101 0 0.905654)
(9.39409 -1.15848e-20 1.04099)
(9.2634 -3.96563e-21 1.18728)
(9.11837 1.64755e-20 1.34532)
(8.95841 0 1.51591)
(8.78283 -3.4654e-20 1.70002)
(8.59085 3.4938e-20 1.89885)
(8.38148 1.82391e-20 2.11392)
(8.15349 -4.29417e-22 2.34716)
(7.90528 -1.5285e-19 2.6009)
(7.63471 1.54072e-19 2.87791)
(7.33889 2.99629e-19 3.18132)
(7.01392 -3.27378e-19 3.51453)
(6.65447 0 3.88095)
(6.25336 2.15579e-20 4.28354)
(5.80083 0 4.7239)
(5.28397 5.39839e-20 5.20075)
(4.6863 1.44371e-18 5.70723)
(3.98872 -1.53627e-18 6.2263)
(3.17203 1.00775e-19 6.72387)
(2.2265 0 7.14347)
(1.20095 -1.83805e-18 7.3019)
(9.99482 -3.35287e-21 0.0956295)
(9.97911 -3.37928e-21 0.190486)
(9.95079 0 0.286203)
(9.91073 6.94444e-21 0.384471)
(9.85967 -7.03966e-21 0.486924)
(9.79772 -6.90646e-24 0.595149)
(9.72466 -5.67573e-23 0.710623)
(9.6402 -2.9373e-20 0.834686)
(9.54403 0 0.968506)
(9.43578 1.54049e-20 1.11309)
(9.31504 0 1.2693)
(9.18137 0 1.43798)
(9.0343 1.61649e-20 1.61999)
(8.87329 0 1.81639)
(8.69771 0 2.0285)
(8.50677 -7.86043e-20 2.25803)
(8.29944 5.2483e-20 2.50718)
(8.07433 0 2.7787)
(7.82953 9.05185e-21 3.0759)
(7.56238 0 3.40276)
(7.26913 3.09339e-19 3.76385)
(6.94445 -3.05809e-19 4.16428)
(6.58074 0 4.6094)
(6.16705 -6.23851e-19 5.10424)
(5.68766 -3.82792e-20 5.65217)
(5.12023 -6.26087e-19 6.25227)
(4.4343 1.22319e-20 6.8939)
(3.59246 1.24819e-18 7.54576)
(2.54603 0 8.14366)
(1.36036 -8.79346e-20 8.44483)
(9.99514 -5.17828e-23 0.101282)
(9.98051 5.20916e-23 0.201787)
(9.95417 1.05519e-22 0.303276)
(9.91696 -1.06227e-22 0.407523)
(9.86966 0 0.516212)
(9.8124 1.10002e-22 0.630982)
(9.74501 -1.1075e-22 0.753374)
(9.66729 6.24214e-22 0.884788)
(9.579 -1.55583e-20 1.02645)
(9.47988 -1.4428e-20 1.17939)
(9.36964 -4.80543e-22 1.34453)
(9.24796 -1.49485e-20 1.52271)
(9.11454 -1.99861e-20 1.71488)
(8.96899 -1.19699e-20 1.92212)
(8.8109 0 2.14586)
(8.63971 -2.51677e-20 2.38798)
(8.45468 6.78919e-20 2.65089)
(8.25477 -1.03426e-19 2.93767)
(8.03848 1.47556e-19 3.25219)
(7.80367 -7.00564e-20 3.59918)
(7.54714 0 3.98439)
(7.2642 0 4.4147)
(6.94775 -2.81901e-19 4.89824)
(6.58698 4.93016e-19 5.44427)
(6.1651 -2.79264e-19 6.06281)
(5.65576 0 6.76312)
(5.01716 0 7.5496)
(4.18773 1.03643e-20 8.40963)
(3.05175 0 9.29369)
(1.63647 -1.08566e-18 9.90524)
(9.99549 0 0.106529)
(9.98202 0 0.212262)
(9.95776 2.08827e-22 0.319067)
(9.92356 -2.10111e-22 0.428793)
(9.8802 0 0.543174)
(9.82782 0 0.663896)
(9.76635 0 0.79255)
(9.69565 2.84708e-20 0.930585)
(9.61557 1.45556e-20 1.07926)
(9.52596 1.47974e-20 1.23964)
(9.42666 -3.75352e-21 1.41265)
(9.3175 1.90704e-20 1.59917)
(9.19832 1.52549e-20 1.80013)
(9.06897 3.52038e-20 2.01667)
(8.92924 -1.17797e-20 2.25027)
(8.77888 1.9814e-21 2.5029)
(8.61751 5.96335e-21 2.77713)
(8.44456 3.067e-21 3.07631)
(8.25914 -5.01436e-20 3.40469)
(8.05985 0 3.76764)
(7.84455 -4.78826e-20 4.1719)
(7.60987 -7.99076e-20 4.62594)
(7.35048 0 5.14052)
(7.05774 1.85888e-19 5.72934)
(6.71722 5.93966e-20 6.41011)
(6.3041 4.95877e-20 7.20566)
(5.77274 0 8.14527)
(5.04239 5.56687e-20 9.26217)
(3.90044 -1.82179e-20 10.5917)
(2.17238 1.43535e-20 11.9321)
(9.99585 0 0.111345)
(9.98359 6.71594e-21 0.221865)
(9.96153 -6.18957e-22 0.333512)
(9.93046 7.45953e-21 0.4482)
(9.89117 -6.30981e-22 0.567706)
(9.84386 3.19262e-22 0.693755)
(9.78849 -9.74196e-22 0.827977)
(9.72502 -1.14566e-20 0.971857)
(9.65341 -1.76576e-21 1.12667)
(9.57361 -3.61365e-21 1.29351)
(9.48558 -1.0829e-20 1.47329)
(9.38932 0 1.66687)
(9.28484 1.47304e-20 1.87519)
(9.17221 -4.55929e-20 2.09938)
(9.05148 2.2983e-20 2.34093)
(8.92274 2.71024e-20 2.60183)
(8.78604 -7.73166e-21 2.88474)
(8.64134 -3.11077e-20 3.19311)
(8.48849 3.17477e-20 3.53143)
(8.32712 0 3.90542)
(8.15649 6.27902e-20 4.32246)
(7.97525 6.18312e-20 4.79209)
(7.78106 0 5.32691)
(7.56978 -1.16425e-19 5.94404)
(7.33408 9.97737e-20 6.66757)
(7.06044 -1.02852e-19 7.53308)
(6.72069 0 8.5971)
(6.26046 -2.79569e-20 9.95835)
(5.42797 -1.64686e-20 11.853)
(3.36476 9.25136e-21 15.1504)
(-0.251463 -2.68706e-19 0.267939)
(-0.764719 -4.84765e-19 0.328479)
(-1.44127 -1.77469e-18 0.363579)
(-2.19718 1.203e-18 0.386905)
(-3.01432 7.68888e-19 0.397799)
(-3.86851 -3.47504e-19 0.394956)
(-4.73158 3.43388e-19 0.377225)
(-5.57039 -3.34734e-19 0.344064)
(-6.34725 1.54739e-19 0.295679)
(-7.02131 0 0.233101)
(-7.55063 -1.51792e-19 0.158098)
(-7.89531 -3.75071e-20 0.0730832)
(-8.02182 -3.53326e-20 -0.0191598)
(-7.90588 0 -0.116749)
(-7.53713 -6.94021e-21 -0.213286)
(-6.92648 7.07257e-21 -0.299889)
(-6.10369 1.06096e-20 -0.369747)
(-5.11234 -1.10963e-20 -0.418429)
(-4.00493 7.41503e-21 -0.444458)
(-2.83473 -7.90328e-21 -0.449453)
(-1.62957 0 -0.435578)
(-0.418538 0 -0.404189)
(0.689979 0 -0.364046)
(1.73999 0 -0.32175)
(2.71173 0 -0.281833)
(3.59384 5.53792e-23 -0.244686)
(4.38757 -7.11336e-23 -0.210791)
(5.09764 -2.28356e-23 -0.180784)
(5.7302 0 -0.155279)
(6.42616 0 -0.140576)
(-0.261731 2.50225e-19 0.717279)
(-0.815658 -1.29455e-21 0.84965)
(-1.53619 0 0.939416)
(-2.32234 -3.76725e-19 1.01269)
(-3.16364 -3.54213e-18 1.06269)
(-4.03783 2.67352e-19 1.08176)
(-4.91713 1.26139e-18 1.06266)
(-5.7679 0 0.999812)
(-6.55139 1.51734e-19 0.890004)
(-7.22519 0 0.733018)
(-7.74557 -2.63505e-21 0.532241)
(-8.07104 -2.16868e-19 0.295085)
(-8.16735 1.41579e-19 0.032724)
(-8.01252 -6.47321e-20 -0.241564)
(-7.60292 3.13387e-20 -0.504562)
(-6.95266 3.9297e-20 -0.734642)
(-6.09404 -3.73687e-20 -0.916723)
(-5.07192 2.64431e-21 -1.04307)
(-3.93826 -3.52225e-21 -1.11293)
(-2.74231 3.73711e-21 -1.13229)
(-1.51367 -2.17318e-21 -1.10706)
(-0.28211 2.18463e-21 -1.04136)
(0.83583 -7.79605e-22 -0.954075)
(1.90387 7.20879e-22 -0.858779)
(2.89492 -7.47825e-23 -0.765825)
(3.79985 2.92235e-23 -0.677126)
(4.61952 5.71758e-23 -0.594513)
(5.35809 2.56003e-23 -0.519974)
(6.01876 -3.96244e-23 -0.455357)
(6.7413 -2.57823e-23 -0.410304)
(-0.23094 -1.53527e-17 1.28726)
(-0.800532 1.36582e-17 1.48142)
(-1.55784 -5.97839e-18 1.61786)
(-2.36484 7.04148e-18 1.73)
(-3.2221 -3.86418e-18 1.80401)
(-4.10882 3.17576e-18 1.82587)
(-4.99758 -2.07537e-18 1.783)
(-5.85429 0 1.66585)
(-6.63926 -1.19673e-18 1.46911)
(-7.30841 8.65072e-19 1.19269)
(-7.81583 1.45358e-19 0.842839)
(-8.11791 4.3274e-19 0.433187)
(-8.18026 1.30851e-19 -0.015385)
(-7.98408 5.19568e-20 -0.476744)
(-7.53077 -6.90941e-20 -0.91282)
(-6.83978 -1.03269e-19 -1.28857)
(-5.94847 2.45343e-20 -1.5806)
(-4.90434 0 -1.77852)
(-3.75971 0 -1.88337)
(-2.56053 6.38426e-21 -1.90504)
(-1.34597 -4.62231e-21 -1.85767)
(-0.127557 2.09444e-21 -1.74582)
(0.971161 1.91059e-22 -1.60123)
(2.0245 -4.82527e-23 -1.44688)
(2.9998 3.60422e-23 -1.29403)
(3.89033 7.98783e-24 -1.1469)
(4.69681 4.78054e-23 -1.00919)
(5.42312 4.38876e-24 -0.884288)
(6.07056 -2.25616e-24 -0.77485)
(6.78164 2.51387e-23 -0.689521)
(-0.177962 1.42762e-17 1.93118)
(-0.754042 -6.23027e-18 2.16786)
(-1.5466 6.33044e-18 2.33863)
(-2.37056 -6.53637e-19 2.48035)
(-3.24029 -1.24915e-18 2.57124)
(-4.13596 0 2.59058)
(-5.03064 1.21741e-18 2.52001)
(-5.88968 -2.28099e-18 2.34565)
(-6.67186 5.95064e-19 2.05957)
(-7.33079 2.89469e-19 1.66113)
(-7.81747 -5.94146e-19 1.15869)
(-8.08522 9.16965e-19 0.571284)
(-8.09794 1.56124e-19 -0.0711333)
(-7.8451 1.2205e-19 -0.725478)
(-7.33599 -2.4375e-19 -1.33459)
(-6.59631 2.16948e-21 -1.85196)
(-5.66871 4.26595e-20 -2.24807)
(-4.60305 3.3006e-20 -2.5114)
(-3.45242 -3.42691e-20 -2.64573)
(-2.26081 -6.02821e-21 -2.66543)
(-1.05701 2.35845e-21 -2.59063)
(0.116256 1.77951e-21 -2.43037)
(1.19153 -1.26736e-21 -2.22709)
(2.21804 2.38995e-22 -2.01391)
(3.1666 -2.00774e-22 -1.80171)
(4.03228 3.88136e-24 -1.59708)
(4.8158 -1.65559e-23 -1.40557)
(5.52102 0 -1.23173)
(6.1477 -1.75551e-24 -1.07883)
(6.83812 4.76594e-23 -0.954554)
(-0.113284 4.93532e-19 2.63419)
(-0.689003 -1.08692e-17 2.89609)
(-1.50812 -1.34847e-18 3.09102)
(-2.33859 0 3.25445)
(-3.21048 5.93699e-19 3.35517)
(-4.10374 -2.9766e-18 3.36502)
(-4.99219 4.66533e-19 3.25952)
(-5.84091 4.01851e-18 3.02)
(-6.60728 -3.46791e-18 2.63532)
(-7.24265 -1.20731e-18 2.10406)
(-7.69481 1.54423e-18 1.43718)
(-7.91406 -1.19509e-20 0.661461)
(-7.86304 -6.06238e-19 -0.180486)
(-7.54577 1.19945e-19 -1.02657)
(-6.97666 -4.75104e-19 -1.80169)
(-6.18852 -3.15897e-20 -2.44947)
(-5.22902 1.41093e-19 -2.93665)
(-4.14938 -3.33199e-20 -3.25227)
(-3.00325 3.44594e-20 -3.40485)
(-1.83188 0 -3.41555)
(-0.646006 0 -3.30195)
(0.458184 -1.713e-21 -3.09221)
(1.50384 9.97764e-22 -2.83401)
(2.49135 -5.34889e-22 -2.56392)
(3.40212 2.01949e-22 -2.29416)
(4.23239 3.47579e-23 -2.03384)
(4.98314 -2.57506e-23 -1.79026)
(5.65839 -1.03918e-23 -1.56896)
(6.25692 5.21838e-23 -1.37382)
(6.91825 -4.4848e-23 -1.21136)
(-0.0430122 -6.58366e-18 3.37685)
(-0.607192 4.50008e-18 3.65081)
(-1.43386 6.41229e-19 3.86217)
(-2.25166 0 4.0405)
(-3.107 -4.81217e-18 4.1442)
(-3.97884 2.71732e-18 4.13775)
(-4.84233 -6.97977e-19 3.99066)
(-5.66309 1.06031e-18 3.67943)
(-6.39806 3.54511e-18 3.18939)
(-6.99671 0 2.51786)
(-7.40298 -3.18072e-19 1.67809)
(-7.56295 3.35266e-19 0.705696)
(-7.43829 3.15683e-19 -0.340993)
(-7.05464 -4.52474e-19 -1.37664)
(-6.42776 0 -2.30917)
(-5.59837 1.04051e-19 -3.07451)
(-4.6181 -4.41427e-20 -3.63868)
(-3.5383 -3.41723e-20 -3.99316)
(-2.41218 3.52302e-20 -4.15329)
(-1.26646 0 -4.14392)
(-0.136661 0 -3.98395)
(0.906061 0 -3.72387)
(1.90691 2.35914e-22 -3.4146)
(2.84416 -3.05154e-23 -3.08911)
(3.70649 -1.23495e-22 -2.76339)
(4.49115 0 -2.44925)
(5.19959 7.12232e-24 -2.15558)
(5.83618 -1.25867e-23 -1.8888)
(6.39919 -1.98686e-24 -1.65323)
(7.0227 0 -1.45408)
(0.0306488 -5.71551e-18 4.1292)
(-0.503302 5.80663e-18 4.4061)
(-1.30857 -4.38126e-18 4.62824)
(-2.08651 0 4.81603)
(-2.89977 0 4.91734)
(-3.72596 0 4.8897)
(-4.54243 5.71078e-19 4.69662)
(-5.31614 3.17201e-20 4.30958)
(-6.00434 -1.25382e-18 3.70982)
(-6.55441 0 2.89243)
(-6.90469 0 1.8725)
(-6.9951 7.53027e-19 0.695793)
(-6.79205 -3.3241e-20 -0.556965)
(-6.34493 -3.16221e-19 -1.77527)
(-5.66909 -2.47183e-19 -2.85216)
(-4.81293 1.36189e-19 -3.71864)
(-3.82961 1.02954e-19 -4.34407)
(-2.7694 3.55064e-20 -4.72391)
(-1.67915 -3.64978e-20 -4.88004)
(-0.575505 -6.56094e-21 -4.83625)
(0.462998 3.93378e-21 -4.62987)
(1.45227 -6.32112e-21 -4.32172)
(2.39416 1.69259e-21 -3.96286)
(3.27084 1.05572e-21 -3.58364)
(4.0748 0 -3.20404)
(4.80451 -1.40289e-22 -2.83854)
(5.46204 0 -2.49743)
(6.05215 0 -2.18778)
(6.57305 -4.20957e-23 -1.91426)
(7.15084 6.6953e-23 -1.68061)
(0.107782 5.6026e-18 4.85166)
(-0.368967 -1.06588e-17 5.12661)
(-1.1159 9.49885e-18 5.35642)
(-1.8209 -4.28479e-19 5.55067)
(-2.56185 -4.64898e-18 5.64725)
(-3.31468 -6.06765e-19 5.59715)
(-4.05996 -6.20412e-19 5.35781)
(-4.76674 -6.12835e-19 4.89517)
(-5.39321 -7.13636e-19 4.1855)
(-5.88426 1.4065e-18 3.22031)
(-6.17068 1.5674e-18 2.01607)
(-6.18209 -1.74505e-18 0.630611)
(-5.89249 0 -0.829807)
(-5.3911 -3.20069e-19 -2.21658)
(-4.68293 1.1909e-19 -3.41968)
(-3.82267 -2.54793e-19 -4.36801)
(-2.86051 0 -5.03822)
(-1.84472 -7.97795e-20 -5.43002)
(-0.806719 5.03707e-20 -5.56836)
(0.208016 -3.40749e-20 -5.48253)
(1.16413 6.7233e-21 -5.23287)
(2.08713 3.49033e-21 -4.88059)
(2.95712 0 -4.47278)
(3.76272 -2.42344e-22 -4.04172)
(4.49884 3.63837e-22 -3.6109)
(5.16512 3.4791e-23 -3.19705)
(5.76429 -2.42259e-23 -2.81167)
(6.30136 3.51331e-25 -2.46228)
(6.77473 5.25773e-23 -2.15372)
(7.30021 -6.92113e-23 -1.88825)
(0.189564 -8.92362e-20 5.4974)
(-0.19607 5.69875e-18 5.7704)
(-0.842929 1.55526e-19 6.008)
(-1.43829 -9.30724e-18 6.20908)
(-2.07365 4.77656e-18 6.3025)
(-2.72263 -1.94515e-18 6.23319)
(-3.36993 5.72811e-18 5.95216)
(-3.98742 -2.60591e-18 5.41897)
(-4.53506 -7.43983e-19 4.60327)
(-4.95401 0 3.49052)
(-5.1619 4.30256e-19 2.09791)
(-5.06858 -1.8185e-20 0.498489)
(-4.71085 -8.69996e-19 -1.15664)
(-4.17071 0 -2.68772)
(-3.45706 1.47429e-19 -3.99363)
(-2.62449 1.17699e-19 -5.00318)
(-1.71191 -7.32489e-20 -5.70275)
(-0.767789 -5.40107e-20 -6.09229)
(0.181966 1.63379e-20 -6.19971)
(1.08324 0 -6.07613)
(1.9623 3.7751e-21 -5.78777)
(2.80096 -1.69968e-21 -5.39298)
(3.58602 -2.52775e-21 -4.93769)
(4.30957 -9.3865e-22 -4.4576)
(4.96856 -2.93326e-22 -3.9791)
(5.5637 1.42555e-22 -3.52075)
(6.09816 8.71664e-23 -3.09494)
(6.57691 0 -2.7095)
(6.99863 -7.73291e-23 -2.36927)
(7.4669 0 -2.07512)
(0.27729 5.72304e-18 6.01615)
(0.0208394 -5.78899e-18 6.29277)
(-0.48349 0 6.54161)
(-0.93151 6.45881e-19 6.75344)
(-1.42663 0 6.84919)
(-1.93921 -2.03794e-18 6.76844)
(-2.45906 2.64071e-18 6.45523)
(-2.96186 0 5.86137)
(-3.41105 7.7834e-19 4.94754)
(-3.74368 -9.21326e-19 3.69028)
(-3.85618 1.03825e-18 2.10712)
(-3.62794 0 0.296022)
(-3.22209 0 -1.52046)
(-2.6746 -4.08117e-19 -3.16621)
(-1.99134 0 -4.55131)
(-1.22465 1.26998e-19 -5.60149)
(-0.392272 -1.03607e-20 -6.3171)
(0.44022 0 -6.68561)
(1.26041 1.42699e-20 -6.76364)
(2.06745 -3.27971e-21 -6.60999)
(2.84643 -1.01053e-20 -6.28639)
(3.58373 7.39568e-22 -5.85021)
(4.27 0 -5.35034)
(4.90022 3.73739e-22 -4.82542)
(5.47309 6.62345e-22 -4.30402)
(5.99011 2.49705e-22 -3.80603)
(6.45456 -6.87433e-23 -3.34448)
(6.87098 2.04749e-23 -2.9273)
(7.23818 3.11226e-23 -2.5592)
(7.64606 -1.89892e-24 -2.23987)
(0.371545 2.29558e-20 6.36032)
(0.283165 5.62948e-20 6.6494)
(-0.0403505 9.2587e-20 6.91685)
(-0.305293 -5.67572e-18 7.14601)
(-0.626483 2.63167e-18 7.25191)
(-0.969065 -6.88936e-19 7.17008)
(-1.32904 7.88159e-19 6.83633)
(-1.68665 -2.37441e-18 6.1924)
(-2.01068 1.85135e-18 5.18713)
(-2.23279 -1.54095e-18 3.78947)
(-2.21703 -1.22504e-18 2.02873)
(-1.84316 6.95843e-19 0.04276)
(-1.42824 2.30516e-22 -1.89212)
(-0.919633 4.35095e-19 -3.62074)
(-0.306445 1.82854e-19 -5.06995)
(0.360926 1.42432e-19 -6.14398)
(1.04898 2.01997e-21 -6.83846)
(1.75368 -3.66857e-20 -7.19574)
(2.45804 4.86011e-20 -7.25585)
(3.14595 -1.83012e-20 -7.07508)
(3.80414 8.464e-21 -6.71733)
(4.42303 -2.32167e-21 -6.24288)
(4.99677 -2.36913e-21 -5.70333)
(5.52284 -2.89384e-22 -5.13947)
(6.00134 2.89853e-22 -4.58137)
(6.4342 -2.41585e-22 -4.0498)
(6.82441 -2.28964e-23 -3.55811)
(7.17566 -7.16359e-23 -3.11417)
(7.48667 -3.00276e-24 -2.72247)
(7.8326 0 -2.38176)
(0.469635 2.88903e-18 6.48631)
(0.587752 -5.40363e-18 6.80466)
(0.475082 -1.02802e-19 7.10179)
(0.421322 5.30918e-18 7.35741)
(0.302087 -4.67985e-18 7.48533)
(0.159552 1.47016e-18 7.41805)
(-0.0109945 -1.51428e-20 7.08544)
(-0.195245 1.80588e-18 6.42221)
(-0.367875 1.96883e-20 5.37222)
(-0.451238 -6.00138e-19 3.89672)
(-0.238701 -7.89496e-19 1.95857)
(0.283577 -2.4629e-20 -0.29293)
(0.627439 -6.11543e-19 -2.28404)
(1.04452 2.07571e-19 -4.03933)
(1.52996 -3.41673e-19 -5.48029)
(2.05944 6.33939e-20 -6.56228)
(2.61835 -1.04368e-19 -7.2709)
(3.189 0 -7.62304)
(3.75385 -1.40402e-20 -7.66455)
(4.29996 8.48394e-21 -7.45768)
(4.81827 -4.70746e-21 -7.06925)
(5.30324 1.28872e-21 -6.56207)
(5.75223 1.93469e-21 -5.98978)
(6.16485 0 -5.3946)
(6.5422 0 -4.80748)
(6.88626 6.29986e-22 -4.24957)
(7.19928 3.60417e-22 -3.73424)
(7.48374 -2.60133e-23 -3.26921)
(7.73794 0 -2.85864)
(8.02183 0 -2.50059)
(0.582601 5.55831e-18 6.37106)
(0.929993 -2.7096e-18 6.73837)
(1.05036 1.39154e-18 7.07501)
(1.2168 -2.75207e-18 7.35918)
(1.31981 2.06731e-18 7.51538)
(1.39778 -3.6933e-19 7.47409)
(1.44407 1.19531e-18 7.15819)
(1.46976 -8.82616e-19 6.48871)
(1.51182 1.00859e-18 5.37962)
(1.67709 6.09394e-19 3.76127)
(2.11671 -7.17465e-19 1.71835)
(2.5198 6.49639e-19 -0.426136)
(2.79112 2.52852e-19 -2.49104)
(3.11286 2.93857e-19 -4.31112)
(3.48465 -8.0562e-20 -5.79642)
(3.88423 -5.8557e-20 -6.89971)
(4.29821 0 -7.60995)
(4.71339 0 -7.95179)
(5.11783 1.41014e-20 -7.97525)
(5.50365 2.66526e-21 -7.74567)
(5.86667 0 -7.3324)
(6.20548 0 -6.80024)
(6.52047 -2.10434e-21 -6.20408)
(6.81301 0 -5.58682)
(7.08477 0 -4.97966)
(7.33731 -6.78864e-22 -4.40366)
(7.57182 -3.23388e-22 -3.87201)
(7.78916 -1.14678e-22 -3.39208)
(7.98699 1.66502e-23 -2.96776)
(8.20996 0 -2.59664)
(0.730117 -1.35857e-18 5.99444)
(1.32047 -1.64505e-19 6.44229)
(1.67877 6.69085e-19 6.82507)
(2.05994 -1.30312e-18 7.13482)
(2.39245 3.07221e-19 7.32169)
(2.69892 3.83459e-21 7.31127)
(2.97799 -3.66572e-19 7.01554)
(3.24321 1.04563e-19 6.34367)
(3.53566 -2.26508e-19 5.20479)
(3.92142 1.94945e-19 3.5667)
(4.39805 -1.15754e-19 1.55288)
(4.76593 -5.41945e-19 -0.623836)
(5.01073 2.75742e-20 -2.70474)
(5.25589 0 -4.5361)
(5.51517 4.04169e-21 -6.03003)
(5.77767 -5.87845e-20 -7.13554)
(6.03538 0 -7.84041)
(6.28169 1.94376e-21 -8.17003)
(6.51199 -8.61349e-21 -8.17725)
(6.72518 0 -7.93006)
(6.92289 8.62074e-22 -7.49978)
(7.10813 -8.68695e-22 -6.95224)
(7.28417 1.73466e-21 -6.34269)
(7.45371 7.95285e-22 -5.7139)
(7.61853 -1.43609e-21 -5.09666)
(7.77934 0 -4.51158)
(7.93591 0 -3.9714)
(8.08727 2.37636e-22 -3.48316)
(8.23017 -1.34867e-22 -3.05041)
(8.39438 -3.20969e-24 -2.67058)
(0.946922 0 5.22067)
(1.771 1.65201e-19 5.93113)
(2.3415 3.07517e-19 6.37794)
(2.92647 -3.01776e-19 6.7003)
(3.48591 -3.2059e-19 6.9143)
(4.01605 2.9414e-19 6.93554)
(4.52194 6.54756e-19 6.66122)
(5.01913 0 5.99231)
(5.52977 0 4.8475)
(6.05526 2.37107e-19 3.22728)
(6.55899 -2.65729e-19 1.25677)
(6.94052 1.03546e-20 -0.853614)
(7.18111 -1.85528e-19 -2.88563)
(7.37379 -7.30372e-20 -4.69389)
(7.53708 9.54716e-20 -6.17519)
(7.66926 -2.72755e-20 -7.26823)
(7.77023 0 -7.95828)
(7.8431 -3.65963e-21 -8.272)
(7.89337 -9.97185e-22 -8.26465)
(7.92877 1.97774e-21 -8.00596)
(7.95778 -5.5554e-22 -7.56787)
(7.98807 0 -7.01598)
(8.02546 -2.6056e-21 -6.40471)
(8.07356 1.39107e-22 -5.77581)
(8.13373 1.42392e-21 -5.15907)
(8.20546 0 -4.57428)
(8.28681 0 -4.0336)
(8.37483 3.27381e-22 -3.5437)
(8.46527 -6.11212e-23 -3.1079)
(8.57369 4.76005e-24 -2.72368)
(9.99623 0 0.115789)
(9.98526 -4.54242e-22 0.230719)
(9.9655 3.92557e-22 0.346812)
(9.93773 -1.22945e-20 0.466033)
(9.90272 -3.99827e-22 0.590196)
(9.86071 6.03729e-21 0.721057)
(9.81176 -1.3448e-20 0.860273)
(9.75589 8.27071e-22 1.00935)
(9.69318 0 1.16957)
(9.6237 1.349e-20 1.34202)
(9.54755 1.38901e-20 1.52759)
(9.46488 0 1.72712)
(9.37592 -1.42151e-20 1.94149)
(9.28095 -2.84594e-20 2.1718)
(9.18032 -3.05559e-20 2.41948)
(9.07448 5.15438e-21 2.68647)
(8.96393 4.33439e-20 2.9754)
(8.84929 0 3.28968)
(8.73122 0 3.63379)
(8.61055 5.51287e-20 4.01348)
(8.48821 2.19178e-19 4.43622)
(8.36535 -2.17149e-19 4.91175)
(8.2435 4.02372e-19 5.45312)
(8.12492 -3.96201e-19 6.07837)
(8.01338 -9.36738e-20 6.81346)
(7.9169 7.16159e-20 7.69789)
(7.85514 5.50898e-20 8.79618)
(7.92202 1.95777e-19 10.2189)
(8.61515 -1.49664e-19 12.1421)
(9.14975 1.41795e-18 15.2229)
(9.99663 0 0.119866)
(9.98702 -6.05995e-21 0.238827)
(9.96968 -1.90042e-22 0.358952)
(9.94536 6.34961e-21 0.482246)
(9.91481 0 0.610551)
(9.87831 -8.20022e-23 0.745642)
(9.836 2.52353e-20 0.889191)
(9.78799 0 1.04271)
(9.73445 0 1.20748)
(9.67559 -1.31338e-20 1.38455)
(9.61166 0 1.57477)
(9.54297 0 1.77894)
(9.46995 2.67771e-20 1.99786)
(9.39312 -2.68121e-20 2.23251)
(9.31312 1.70995e-21 2.48424)
(9.23077 -3.42913e-21 2.75485)
(9.14705 1.37103e-20 3.04679)
(9.06319 2.62467e-20 3.36327)
(8.98074 0 3.70849)
(8.90166 -5.32159e-20 4.08784)
(8.82857 3.97872e-19 4.50822)
(8.76504 -3.93525e-19 4.97855)
(8.71635 0 5.5105)
(8.69067 -6.45309e-19 6.11967)
(8.70167 5.59729e-19 6.82724)
(8.77466 -5.08527e-19 7.66222)
(8.95505 5.33823e-20 8.66304)
(9.3007 2.38973e-19 9.87168)
(10.1184 4.6118e-19 11.2387)
(10.9176 -4.8956e-19 12.4052)
(9.99705 9.04615e-23 0.123502)
(9.98884 -9.08829e-23 0.246045)
(9.97404 0 0.369734)
(9.95329 0 0.496599)
(9.92735 7.45941e-22 0.628498)
(9.89654 -2.33927e-21 0.767212)
(9.86106 -1.07053e-20 0.914414)
(9.82112 0 1.07161)
(9.77699 0 1.24004)
(9.72898 0 1.42072)
(9.67751 0 1.61445)
(9.62304 -1.24772e-20 1.82191)
(9.56619 0 2.04381)
(9.50772 0 2.281)
(9.44856 1.9579e-22 2.53463)
(9.38986 0 2.80629)
(9.33306 0 3.09814)
(9.27996 -2.23519e-19 3.41301)
(9.23283 2.21001e-19 3.75456)
(9.19466 4.6496e-20 4.12745)
(9.16943 0 4.53749)
(9.16251 0 4.99185)
(9.18155 0 5.49937)
(9.23785 0 6.07088)
(9.34809 6.85775e-20 6.71883)
(9.53713 -7.25597e-19 7.45575)
(9.84056 7.59532e-19 8.2883)
(10.269 1.00768e-20 9.20634)
(10.9503 -2.28212e-19 10.1634)
(11.8668 2.25348e-19 10.9412)
(9.99748 -5.5498e-21 0.12665)
(9.99073 -5.55562e-21 0.252282)
(9.97852 -5.6339e-21 0.379015)
(9.96145 5.65087e-21 0.508893)
(9.94023 5.69268e-21 0.643774)
(9.91524 -2.92645e-21 0.785437)
(9.88673 -2.90707e-21 0.93554)
(9.855 0 1.09556)
(9.82042 -1.1844e-20 1.26671)
(9.78342 1.18769e-20 1.44992)
(9.74452 -1.2118e-20 1.64591)
(9.70436 3.61356e-20 1.85524)