/*--------------------------------*- C++ -*----------------------------------*\
| =========                 |                                                 |
| \\      /  F ield         | OpenFOAM: The Open Source CFD Toolbox           |
|  \\    /   O peration     | Version:  2012                                  |
|   \\  /    A nd           | Website:  www.openfoam.com                      |
|    \\/     M anipulation  |                                                 |
\*---------------------------------------------------------------------------*/
FoamFile
{
    version     2.0;
    format      ascii;
    class       surfaceVectorField;
    location    "0.4";
    object      Uf;
}
// * * * * * * * * * * * * * * * * * * * * * * * * * * * * * * * * * * * * * //

dimensions      [0 1 -1 0 0 0 0];


internalField   nonuniform List<vector> 
5457
(
(9.92454 6.74477e-22 0.0237874)
(9.97232 -4.412e-22 0.0369336)
(9.83471 -1.84765e-23 0.0305958)
(9.93484 8.97196e-22 0.0450249)
(9.73058 -4.52998e-22 0.0361537)
(9.87047 -1.37066e-21 0.0534499)
(9.60976 0 0.0418815)
(9.78365 9.2581e-22 0.0635027)
(9.47207 -5.05431e-22 0.0477637)
(9.67915 0 0.0740911)
(9.31764 -1.53977e-21 0.0537946)
(9.55782 -9.37136e-24 0.0850761)
(9.14626 6.34205e-23 0.0600609)
(9.4189 -2.29505e-23 0.0966434)
(8.95748 2.19006e-21 0.0666399)
(9.26154 2.75253e-23 0.108953)
(8.75076 1.1038e-21 0.0735786)
(9.08506 4.40903e-21 0.122098)
(8.5255 -2.46537e-21 0.0809104)
(8.88876 -9.01724e-21 0.136131)
(8.28112 -2.41009e-21 0.088669)
(8.67189 -1.88903e-22 0.151095)
(8.01705 -2.71934e-21 0.0968965)
(8.4337 9.82401e-21 0.167029)
(7.73271 -2.65865e-21 0.105648)
(8.17342 -6.62535e-23 0.183978)
(7.42755 0 0.114995)
(7.89035 -1.3686e-21 0.201998)
(7.10101 -6.42733e-21 0.125021)
(7.58378 7.17425e-21 0.221158)
(6.75257 -6.28064e-21 0.135819)
(7.25308 5.90871e-21 0.24153)
(6.38179 0 0.147478)
(6.89768 -2.52771e-20 0.263174)
(5.98838 0 0.160072)
(6.51712 2.69823e-20 0.286112)
(5.57233 0 0.17365)
(6.11118 -2.87298e-20 0.310312)
(5.13399 -3.59439e-20 0.188212)
(5.67993 -3.06787e-20 0.335659)
(4.67429 -7.37648e-20 0.203694)
(5.22391 -2.58044e-21 0.361909)
(4.19483 -3.77012e-20 0.219966)
(4.74421 6.76596e-20 0.388669)
(3.69799 -1.83995e-19 0.236839)
(4.24266 0 0.415385)
(3.18695 -3.8203e-19 0.254109)
(3.72181 -8.47197e-19 0.441368)
(2.66553 2.30427e-19 0.271656)
(3.18487 6.86036e-19 0.465854)
(2.13782 4.15567e-19 0.289627)
(2.6355 4.21629e-19 0.488156)
(1.60747 0 0.308614)
(2.07734 1.70221e-18 0.507875)
(1.07672 0 0.330718)
(1.5138 1.87185e-18 0.524969)
(0.541812 -2.12011e-18 0.354568)
(0.930298 -8.05024e-18 0.54233)
(0.436024 -2.65384e-18 0.546168)
(10.0001 -1.99721e-22 0.0476609)
(9.99812 -1.54005e-21 0.0368856)
(9.96956 -4.81648e-22 0.0642134)
(9.9847 4.46726e-22 0.0603295)
(9.91927 3.44547e-23 0.0787108)
(9.94859 4.47161e-22 0.0792655)
(9.85084 9.1491e-22 0.0940484)
(9.89097 -4.588e-22 0.0994704)
(9.76385 4.95851e-22 0.110237)
(9.81517 0 0.120904)
(9.65797 1.50708e-21 0.127264)
(9.72204 9.79948e-22 0.143406)
(9.53273 -5.83425e-23 0.145341)
(9.61091 -1.48728e-21 0.167269)
(9.38741 2.29685e-21 0.164675)
(9.48087 -1.04543e-21 0.192823)
(9.22116 -5.86593e-21 0.185399)
(9.33106 7.56699e-21 0.220291)
(9.03305 -6.63943e-21 0.207598)
(9.16056 -5.14378e-21 0.249818)
(8.82211 1.21593e-20 0.231341)
(8.9684 4.84705e-22 0.281514)
(8.58743 1.23664e-20 0.256695)
(8.75355 1.70822e-20 0.315472)
(8.32809 1.21032e-21 0.283731)
(8.515 2.64506e-21 0.351784)
(8.04322 5.90233e-21 0.312536)
(8.25173 -1.36863e-21 0.390558)
(7.73202 1.95015e-20 0.343206)
(7.9628 2.96218e-20 0.431913)
(7.39376 -1.34427e-20 0.37583)
(7.64729 -1.07613e-20 0.475982)
(7.02783 2.32385e-21 0.410457)
(7.3044 -1.2938e-20 0.522866)
(6.6338 -2.42594e-21 0.44708)
(6.93341 -1.04672e-19 0.572606)
(6.21152 -5.94366e-20 0.485591)
(6.53377 3.86832e-19 0.625156)
(5.7612 3.1249e-21 0.525737)
(6.10524 -1.74629e-19 0.680321)
(5.28357 1.39987e-19 0.567069)
(5.64793 9.53265e-20 0.737673)
(4.77995 1.04515e-19 0.608926)
(5.16242 3.88565e-20 0.796512)
(4.25236 -6.75679e-19 0.650456)
(4.64989 1.42962e-19 0.855853)
(3.70347 2.42858e-19 0.690687)
(4.11216 -6.66027e-19 0.914459)
(3.1364 8.73157e-19 0.728707)
(3.55158 7.19102e-19 0.970954)
(2.5544 1.72532e-18 0.763996)
(2.97083 0 1.02408)
(1.95997 3.57539e-18 0.796875)
(2.37256 1.7004e-18 1.07321)
(1.35346 -6.2526e-18 0.830149)
(1.76008 5.28847e-18 1.11895)
(0.728782 -8.5539e-18 0.863177)
(1.11881 -1.12476e-17 1.16753)
(0.540209 4.27398e-18 1.20702)
(9.99262 -8.67757e-22 0.0527082)
(9.99585 -4.13872e-25 0.0404977)
(9.96482 1.37554e-21 0.0784057)
(9.97974 0 0.0742661)
(9.91768 -5.7438e-23 0.102651)
(9.94431 2.29675e-22 0.103461)
(9.85355 -1.3683e-21 0.128202)
(9.88933 1.6035e-21 0.133174)
(9.77251 4.95575e-22 0.155356)
(9.817 -4.73495e-22 0.164515)
(9.67413 -2.04321e-21 0.184217)
(9.72814 2.8983e-21 0.197602)
(9.5579 -2.46925e-21 0.215101)
(9.62231 -4.22363e-21 0.232816)
(9.42309 4.32377e-21 0.248338)
(9.49869 -2.21852e-22 0.270628)
(9.26881 8.14338e-21 0.284165)
(9.35645 -7.18677e-25 0.311409)
(9.09405 2.04482e-21 0.322749)
(9.19467 -5.21934e-22 0.355431)
(8.89771 5.59571e-21 0.364219)
(9.01238 -6.36845e-21 0.402901)
(8.67869 7.19986e-21 0.408695)
(8.8085 2.15329e-20 0.453996)
(8.43587 2.30163e-23 0.456297)
(8.58195 -1.96558e-20 0.508883)
(8.16814 2.27005e-20 0.507167)
(8.33161 -2.09114e-20 0.567742)
(7.87443 -1.09877e-21 0.561459)
(8.0564 8.76319e-20 0.630774)
(7.55371 -1.02923e-20 0.619321)
(7.75523 -1.59861e-19 0.698195)
(7.20503 -1.21e-19 0.680851)
(7.42708 1.30407e-19 0.770186)
(6.82755 2.9048e-19 0.746067)
(7.07094 -3.35682e-19 0.846869)
(6.42062 2.64745e-19 0.814846)
(6.68587 3.56768e-19 0.928262)
(5.98384 -7.89869e-20 0.886839)
(6.27113 7.79011e-20 1.01418)
(5.5172 -6.49614e-21 0.961393)
(5.82622 2.32463e-21 1.10412)
(5.02117 7.87421e-20 1.03752)
(5.35097 5.74498e-19 1.19724)
(4.49676 1.40967e-19 1.11388)
(4.84565 -1.76449e-18 1.29223)
(3.94556 -1.69474e-19 1.1889)
(4.31104 1.15127e-18 1.38742)
(3.36959 -1.64726e-19 1.2609)
(3.74847 1.43217e-19 1.48087)
(2.77115 0 1.32858)
(3.15966 3.34238e-19 1.57057)
(2.15243 3.45769e-18 1.39151)
(2.54671 -3.61099e-19 1.65506)
(1.51523 1.30585e-19 1.4519)
(1.91412 3.41289e-18 1.73404)
(0.860226 1.67862e-18 1.50841)
(1.25176 -7.07452e-18 1.8123)
(0.62376 5.75116e-19 1.87708)
(9.98869 8.675e-22 0.0623081)
(9.99469 8.77966e-22 0.0460348)
(9.96068 -1.14289e-21 0.0983366)
(9.97681 0 0.0883035)
(9.91437 1.90702e-21 0.132939)
(9.94108 -2.92107e-21 0.127232)
(9.85125 2.47362e-21 0.168519)
(9.88707 2.98132e-21 0.16635)
(9.77172 1.96873e-21 0.205901)
(9.81622 1.15749e-21 0.207311)
(9.67547 6.34456e-22 0.245499)
(9.72923 -3.09729e-21 0.250627)
(9.562 -1.93032e-21 0.28781)
(9.62576 6.14685e-21 0.2968)
(9.43069 -4.54315e-21 0.333328)
(9.50511 -2.21851e-22 0.346414)
(9.28073 -8.67084e-21 0.38245)
(9.36651 -1.15853e-21 0.399974)
(9.11121 -9.00101e-21 0.435485)
(9.20913 -3.32284e-21 0.457871)
(8.92113 9.88384e-21 0.492684)
(9.03205 -1.3541e-20 0.520415)
(8.70944 -5.78487e-21 0.554271)
(8.83428 1.42749e-20 0.587874)
(8.47504 -4.06043e-20 0.620472)
(8.61478 -1.00298e-20 0.660504)
(8.21685 4.52362e-20 0.691528)
(8.37249 1.99777e-20 0.738576)
(7.93375 -7.39179e-20 0.767702)
(8.10631 4.44861e-20 0.822395)
(7.62461 -1.58682e-20 0.84925)
(7.81514 -1.36848e-19 0.912285)
(7.28832 -8.96673e-20 0.936388)
(7.49787 1.1786e-19 1.00856)
(6.92379 -2.61258e-19 1.02925)
(7.15329 -2.52411e-19 1.1115)
(6.52996 1.66411e-19 1.12778)
(6.78017 -2.66268e-19 1.22125)
(6.10596 1.58412e-19 1.23167)
(6.37744 8.71993e-19 1.33772)
(5.65113 5.9075e-19 1.34023)
(5.94406 -1.6235e-19 1.46049)
(5.16512 -1.29952e-18 1.45229)
(5.47916 -9.36338e-19 1.58867)
(4.64799 -7.15993e-19 1.56619)
(4.98217 2.7547e-19 1.72079)
(4.10032 1.4505e-18 1.67984)
(4.45292 -9.00907e-19 1.85478)
(3.52325 6.44906e-19 1.79078)
(3.89184 1.46456e-18 1.98804)
(2.91855 -3.5606e-20 1.89659)
(3.29997 2.5436e-18 2.11747)
(2.28887 -3.56664e-19 1.99532)
(2.67923 -2.69902e-18 2.23994)
(1.63856 -3.8882e-18 2.08675)
(2.03556 0 2.35252)
(0.975564 -8.06406e-18 2.16524)
(1.36604 -1.01535e-17 2.45478)
(0.702254 2.67652e-18 2.52945)
(9.98682 0 0.072552)
(9.99415 -5.43566e-23 0.0524836)
(9.95827 -1.81287e-21 0.117368)
(9.97536 5.49048e-23 0.102618)
(9.91269 -1.77708e-21 0.161086)
(9.93956 -1.78393e-21 0.150626)
(9.85073 1.64366e-21 0.205844)
(9.88656 -1.82758e-21 0.198916)
(9.77278 -3.95845e-21 0.252839)
(9.81738 -2.28668e-22 0.249255)
(9.67862 2.52284e-21 0.30276)
(9.73249 -1.69806e-21 0.3025)
(9.56776 7.78182e-21 0.356237)
(9.63159 4.21093e-21 0.359315)
(9.43959 3.15198e-21 0.41387)
(9.51404 7.61573e-22 0.42039)
(9.29335 4.16488e-21 0.476161)
(9.37911 3.4238e-23 0.486342)
(9.12819 -7.97848e-21 0.543513)
(9.22602 -9.53571e-21 0.557671)
(8.94318 -8.83677e-21 0.616256)
(9.05391 -8.84308e-23 0.634785)
(8.73734 9.75712e-21 0.694693)
(8.86184 -9.23771e-21 0.718037)
(8.50964 5.08883e-20 0.779133)
(8.64883 1.92581e-20 0.807773)
(8.25902 1.95048e-20 0.86991)
(8.41387 -1.8535e-20 0.904362)
(7.98439 -2.04747e-20 0.9674)
(8.15586 -4.2315e-20 1.00822)
(7.68458 -2.35165e-22 1.072)
(7.87373 2.10695e-20 1.1198)
(7.3584 -4.91215e-20 1.18409)
(7.56627 -9.12293e-20 1.23961)
(7.00453 -2.57579e-19 1.30397)
(7.2321 9.14961e-20 1.36811)
(6.62168 4.52689e-19 1.43176)
(6.86986 -2.07462e-19 1.50566)
(6.20855 5.38981e-19 1.56728)
(6.47809 1.80201e-19 1.65236)
(5.76392 -1.69912e-18 1.70993)
(6.05524 4.36794e-19 1.80796)
(5.2867 6.52752e-19 1.85849)
(5.59983 -1.4661e-18 1.97168)
(4.7761 7.80619e-20 2.01108)
(5.11047 1.32707e-18 2.14198)
(4.2318 -8.58976e-19 2.16503)
(4.58609 -4.59557e-21 2.31645)
(3.65423 3.3775e-18 2.31694)
(4.02612 -2.00933e-19 2.49165)
(3.04488 -1.81935e-19 2.46272)
(3.43104 2.35429e-18 2.66308)
(2.40713 -2.30947e-18 2.59794)
(2.80268 -2.33806e-18 2.82516)
(1.74746 -6.37744e-18 2.71818)
(2.14762 0 2.97129)
(1.07842 7.58581e-19 2.81044)
(1.47132 -6.20666e-18 3.09405)
(0.776822 6.84728e-18 3.16759)
(9.986 1.91934e-24 0.0831583)
(9.99393 -5.43565e-23 0.0593371)
(9.95721 6.19299e-23 0.136244)
(9.97485 -1.57917e-21 0.117045)
(9.91254 -1.83496e-21 0.18882)
(9.93936 1.67428e-21 0.173557)
(9.85211 -3.68094e-21 0.242727)
(9.88762 -2.19047e-23 0.23068)
(9.77617 2.01437e-21 0.299297)
(9.82043 -1.85956e-21 0.290121)
(9.68453 5.89097e-23 0.359411)
(9.73806 7.55882e-21 0.35298)
(9.57675 -2.84901e-21 0.423824)
(9.6402 -3.66171e-21 0.420093)
(9.45223 -2.36424e-21 0.493236)
(9.52629 7.61572e-22 0.492259)
(9.31024 -1.37751e-20 0.568254)
(9.39564 7.08416e-21 0.570197)
(9.14998 -1.53988e-21 0.649379)
(9.2475 -4.26516e-21 0.654507)
(8.97057 -5.9221e-22 0.737037)
(9.08105 2.25444e-22 0.745685)
(8.77108 5.8126e-22 0.831624)
(8.89541 -3.26483e-22 0.844171)
(8.55052 -5.05833e-20 0.933543)
(8.68965 1.89292e-20 0.950398)
(8.30786 -8.06248e-20 1.04324)
(8.46277 -2.05247e-20 1.06484)
(8.042 -7.07686e-23 1.16124)
(8.2137 -6.11323e-20 1.18802)
(7.75174 -7.11645e-20 1.28809)
(7.94134 4.19811e-20 1.32058)
(7.43577 5.13982e-20 1.4244)
(7.6444 -1.12803e-19 1.46322)
(7.09262 1.38316e-19 1.57069)
(7.32137 -8.74781e-20 1.61665)
(6.72071 -4.75564e-19 1.72731)
(6.97071 5.67649e-19 1.78149)
(6.31833 8.04813e-20 1.89433)
(6.59054 -8.60058e-19 1.95813)
(5.88367 6.47938e-19 2.07133)
(6.17882 5.39563e-19 2.14664)
(5.41491 -7.57442e-19 2.25719)
(5.7334 -9.77513e-19 2.34645)
(4.91039 1.22609e-18 2.44984)
(5.25202 -9.93225e-19 2.5561)
(4.36878 6.54111e-19 2.64605)
(4.73253 2.88087e-18 2.7729)
(3.78963 -1.19457e-18 2.84119)
(4.17318 -1.23271e-18 2.99257)
(3.17403 1.42058e-19 3.02908)
(3.57355 8.15598e-21 3.20891)
(2.52572 0 3.20196)
(2.935 1.40979e-19 3.41342)
(1.85249 9.06169e-20 3.35017)
(2.26361 0 3.59527)
(1.16888 8.78726e-20 3.45073)
(1.57259 -3.53767e-20 3.73971)
(0.84701 -2.90172e-18 3.80712)
(9.98575 -1.65355e-21 0.0938782)
(9.99391 0 0.0663121)
(9.95716 7.17172e-23 0.154856)
(9.97493 1.78489e-21 0.131376)
(9.91359 3.4672e-21 0.215878)
(9.94013 1.61113e-21 0.195919)
(9.85498 1.77784e-21 0.278578)
(9.88993 1.78774e-21 0.261485)
(9.78144 3.79517e-21 0.344348)
(9.82503 3.74845e-21 0.329699)
(9.69279 3.70759e-21 0.41424)
(9.74558 1.56791e-23 0.401813)
(9.58863 0 0.489146)
(9.65127 0 0.478829)
(9.46838 1.02824e-20 0.569879)
(9.54158 9.84115e-22 0.561657)
(9.33137 1.64644e-20 0.657146)
(9.41588 1.1162e-21 0.651112)
(9.17683 -2.44928e-21 0.75154)
(9.27345 6.34216e-21 0.747885)
(9.00392 4.84466e-22 0.853571)
(9.11354 8.49869e-21 0.852557)
(8.81176 1.82351e-20 0.963721)
(8.9353 -8.58934e-21 0.96565)
(8.59941 4.85539e-20 1.08249)
(8.73785 2.76225e-20 1.08769)
(8.36584 -1.46515e-21 1.21044)
(8.52023 2.03669e-20 1.21925)
(8.10994 -1.7965e-20 1.34824)
(8.2814 -2.02751e-20 1.361)
(7.83047 -1.33666e-21 1.49665)
(8.0202 9.68318e-22 1.51376)
(7.52602 -2.51417e-19 1.65651)
(7.73527 1.46946e-19 1.67847)
(7.19495 3.48914e-19 1.82863)
(7.42505 -3.33749e-19 1.85611)
(6.83537 1.67758e-19 2.01369)
(7.08771 4.30405e-19 2.04767)
(6.44512 -3.85509e-19 2.21212)
(6.721 1.74417e-19 2.25396)
(6.02175 -1.10373e-18 2.42383)
(6.32238 -3.86402e-19 2.47545)
(5.56265 -1.21467e-18 2.64794)
(5.88891 -1.66947e-19 2.71199)
(5.06505 7.05919e-19 2.88237)
(5.41733 -1.83449e-18 2.96239)
(4.52641 9.45703e-19 3.12339)
(4.90415 1.71205e-18 3.22389)
(3.94497 -1.40006e-20 3.36508)
(4.34609 -1.87669e-18 3.49151)
(3.32075 8.611e-21 3.59888)
(3.74111 1.82097e-18 3.75733)
(2.65706 1.39127e-19 3.81318)
(3.0892 8.67662e-21 4.00967)
(1.96232 -1.26676e-19 3.99249)
(2.39473 3.42312e-20 4.23293)
(1.25183 -3.07523e-18 4.10156)
(1.67634 -8.64662e-20 4.40496)
(0.914188 -2.3358e-19 4.46677)
(9.98585 3.45967e-21 0.10451)
(9.994 -1.70262e-21 0.0732355)
(9.95782 3.32218e-21 0.173043)
(9.97543 1.74308e-21 0.145428)
(9.91561 -6.61716e-23 0.242097)
(9.94165 -1.09962e-22 0.217587)
(9.8591 3.78148e-21 0.313206)
(9.89326 -1.79067e-21 0.291183)
(9.78833 -7.45625e-23 0.387803)
(9.83095 1.53689e-22 0.367786)
(9.70312 -3.69194e-21 0.467074)
(9.75481 -3.76403e-21 0.448753)
(9.60311 9.95482e-22 0.552044)
(9.66452 4.73571e-22 0.535226)
(9.48776 -8.18001e-21 0.643629)
(9.55961 7.20559e-21 0.628228)
(9.35644 -8.9464e-21 0.742626)
(9.4395 -8.06896e-21 0.728663)
(9.20843 1.73135e-20 0.849711)
(9.30354 -4.08835e-21 0.837306)
(9.04297 -7.64535e-22 0.965477)
(9.15102 2.12534e-20 0.954819)
(8.8592 1.19673e-21 1.09049)
(8.98116 -2.60229e-20 1.0818)
(8.65624 -6.42823e-22 1.22535)
(8.79315 9.23527e-21 1.21887)
(8.43309 1.11384e-21 1.37075)
(8.58606 -9.54079e-21 1.36671)
(8.18865 -1.10644e-21 1.52752)
(8.35889 -3.76885e-20 1.52615)
(7.92163 1.50807e-19 1.69664)
(8.11047 -4.03936e-20 1.69819)
(7.63054 5.95943e-20 1.87924)
(7.83942 3.49272e-19 1.88404)
(7.31357 -2.44231e-19 2.07647)
(7.54408 -4.17402e-20 2.08502)
(6.96855 4.34198e-19 2.28946)
(7.2224 -3.5113e-19 2.30255)
(6.59285 1.68153e-19 2.51912)
(6.87182 5.42823e-19 2.53798)
(6.18339 5.53052e-19 2.76586)
(6.48928 -3.8678e-19 2.79236)
(5.73656 -8.03798e-19 3.02928)
(6.07103 9.73443e-19 3.06618)
(5.24833 -7.91618e-19 3.30755)
(5.61264 -1.70355e-18 3.35884)
(4.71452 -1.15217e-18 3.5967)
(5.10901 8.84039e-19 3.6679)
(4.13141 4.15968e-22 3.88981)
(4.55477 -2.00536e-18 3.98808)
(3.49688 1.79922e-18 4.17588)
(3.9452 1.93305e-18 4.31015)
(2.8125 -9.59707e-20 4.43904)
(3.27757 -1.29162e-19 4.61929)
(2.08639 7.26281e-20 4.65739)
(2.55312 2.02012e-18 4.89438)
(1.33417 2.75432e-18 4.78087)
(1.79176 -2.12925e-18 5.10541)
(0.981816 2.68289e-18 5.16813)
(9.98619 -3.37808e-21 0.114904)
(9.99417 -1.6913e-21 0.0799928)
(9.95902 -1.71102e-21 0.190663)
(9.97623 -1.70258e-21 0.159052)
(9.91841 -1.85427e-21 0.26734)
(9.94375 -1.75353e-21 0.238432)
(9.86429 -5.39534e-21 0.346449)
(9.89744 -5.28135e-21 0.319628)
(9.79663 -3.58149e-21 0.429458)
(9.83802 -3.46736e-23 0.404194)
(9.71528 4.50777e-22 0.517663)
(9.76555 -2.86345e-23 0.493566)
(9.61991 6.76139e-21 0.612206)
(9.67972 4.73569e-22 0.589004)
(9.51004 7.14165e-21 0.714099)
(9.58011 -1.40472e-21 0.691634)
(9.38509 -3.16565e-21 0.824223)
(9.46619 9.80172e-22 0.802448)
(9.24441 1.36028e-22 0.943335)
(9.3374 -8.09987e-21 0.922296)
(9.08729 -4.53006e-21 1.0721)
(9.19309 8.18176e-21 1.05191)
(8.91296 -1.75973e-20 1.21118)
(9.03256 -8.41069e-21 1.19197)
(8.72058 1.31908e-22 1.36126)
(8.85506 -3.63949e-22 1.34318)
(8.50922 -4.86403e-20 1.52317)
(8.65975 3.81015e-22 1.50633)
(8.27779 -7.70194e-20 1.69793)
(8.44567 -5.69494e-20 1.6824)
(8.02502 1.6213e-19 1.88675)
(8.21172 4.59263e-20 1.87262)
(7.74937 2.43949e-19 2.09106)
(7.95651 1.62923e-20 2.07845)
(7.4489 -1.51717e-19 2.31246)
(7.67834 1.43306e-19 2.30163)
(7.12122 -2.33574e-19 2.5526)
(7.37505 -2.1361e-19 2.54407)
(6.76329 -2.17243e-20 2.81302)
(7.04383 9.71776e-21 2.80775)
(6.37137 4.74473e-20 3.09488)
(6.68118 -3.4885e-19 3.09453)
(5.94084 4.65088e-20 3.39856)
(6.28256 3.55159e-19 3.40584)
(5.4662 0 3.7229)
(5.84235 -1.12263e-20 3.74207)
(4.94116 0 4.06432)
(5.35361 -7.59323e-19 4.10173)
(4.35913 -2.7771e-20 4.41543)
(4.80824 1.55295e-18 4.48011)
(3.71447 -2.34319e-20 4.76326)
(4.19761 -8.06736e-19 4.86755)
(3.00506 2.02166e-18 5.08752)
(3.51433 2.58633e-20 5.24671)
(2.23677 -2.57554e-19 5.35894)
(2.75421 1.93505e-18 5.59044)
(1.42481 -2.10668e-18 5.50927)
(1.93224 -2.40967e-19 5.85943)
(1.05618 -2.1342e-18 5.9373)
(9.9867 -1.59707e-23 0.124944)
(9.9944 3.37809e-21 0.0865027)
(9.96062 -1.7457e-21 0.207588)
(9.97726 1.66299e-21 0.172124)
(9.92186 -5.22231e-21 0.291473)
(9.9463 1.90595e-23 0.25833)
(9.87038 1.41049e-22 0.378143)
(9.90234 -3.46794e-21 0.346681)
(9.80617 3.51824e-21 0.469108)
(9.84609 3.53074e-21 0.43875)
(9.72907 0 0.565754)
(9.77762 5.64889e-23 0.536038)
(9.63881 -7.71369e-21 0.669324)
(9.69665 -5.6961e-23 0.639903)
(9.53495 -7.53845e-21 0.780922)
(9.6028 -1.88411e-22 0.751566)
(9.417 -4.05692e-21 0.901506)
(9.49564 0 0.872096)
(9.28438 1.28105e-22 1.0319)
(9.37466 -9.80392e-21 1.00241)
(9.13646 4.11665e-21 1.17285)
(9.23931 2.06672e-21 1.14331)
(8.97254 8.911e-21 1.32508)
(9.08897 8.34924e-21 1.29554)
(8.79188 -1.05579e-22 1.48939)
(8.923 8.7069e-21 1.45987)
(8.59363 -8.537e-21 1.66673)
(8.74066 -2.59547e-20 1.63722)
(8.37677 6.70756e-20 1.8583)
(8.54108 1.7468e-20 1.82872)
(8.14009 -1.00214e-19 2.06556)
(8.32324 7.55142e-20 2.03579)
(7.88205 -8.3155e-20 2.29031)
(8.08585 -1.64506e-19 2.2602)
(7.60069 7.79294e-20 2.5346)
(7.82725 2.30614e-21 2.50408)
(7.29349 3.19818e-20 2.80069)
(7.54527 7.70157e-20 2.76992)
(6.95713 -3.20981e-19 3.09093)
(7.23702 1.81445e-19 3.06044)
(6.5873 -3.45344e-20 3.40747)
(6.89868 -5.12803e-19 3.3785)
(6.17846 2.94053e-19 3.75188)
(6.52517 3.08544e-19 3.72676)
(5.72354 -7.78674e-19 4.12435)
(6.10976 -4.69285e-22 4.1072)
(5.21376 8.18815e-19 4.52253)
(5.64364 -7.60725e-19 4.52015)
(4.63876 7.47176e-19 4.93975)
(5.11553 1.5832e-18 4.96277)
(3.98766 -7.46942e-19 5.36229)
(4.51175 -6.00517e-20 5.42664)
(3.25171 -3.31238e-20 5.76598)
(3.81762 -7.44858e-19 5.89376)
(2.43057 1.91602e-18 6.11314)
(3.01973 -4.02015e-21 6.33156)
(1.53638 -3.03047e-19 6.3123)
(2.11855 1.93179e-18 6.6894)
(1.14845 -3.07277e-18 6.80911)
(9.98733 5.03655e-21 0.134541)
(9.99468 1.69027e-21 0.0927046)
(9.96255 3.40815e-21 0.223703)
(9.97847 8.17957e-26 0.184546)
(9.92585 1.73197e-21 0.31437)
(9.94924 1.71803e-21 0.277168)
(9.87727 4.12999e-24 0.408139)
(9.90784 3.50624e-21 0.372215)
(9.81678 2.85053e-23 0.506567)
(9.85501 -3.549e-21 0.471298)
(9.74429 -1.79132e-24 0.611119)
(9.79084 5.30354e-23 0.575975)
(9.65954 7.46673e-21 0.723127)
(9.71509 -8.53393e-23 0.687689)
(9.5622 7.35221e-21 0.843773)
(9.62743 -7.24984e-21 0.807741)
(9.45182 -5.85794e-21 0.974086)
(9.52752 0 0.937269)
(9.32792 -7.73254e-21 1.11495)
(9.41493 1.91078e-21 1.07725)
(9.18997 6.36758e-21 1.26717)
(9.28922 -1.98281e-21 1.22854)
(9.03737 8.14839e-21 1.43154)
(9.14987 8.23779e-21 1.39193)
(8.86949 -1.75118e-20 1.60895)
(8.99636 8.08234e-21 1.56827)
(8.6856 5.03452e-22 1.80048)
(8.82806 -1.73274e-20 1.75857)
(8.48479 2.6503e-20 2.00749)
(8.64428 1.74697e-20 1.9641)
(8.26598 8.81128e-21 2.23171)
(8.44412 -3.01793e-20 2.18647)
(8.02774 -7.7386e-20 2.47527)
(8.22646 2.60218e-20 2.42774)
(7.76819 2.05835e-21 2.74073)
(7.98979 -7.6437e-20 2.69046)
(7.48481 2.27532e-19 3.03104)
(7.7321 8.15786e-20 2.97768)
(7.17422 -1.67037e-20 3.34946)
(7.4506 1.49862e-19 3.29295)
(6.83181 -1.62192e-19 3.69942)
(7.14147 -9.15308e-21 3.64024)
(6.45131 1.08785e-20 4.08412)
(6.79938 -1.5282e-19 4.02382)
(6.02429 1.06755e-20 4.50585)
(6.41693 1.07866e-20 4.44779)
(5.53942 2.72718e-20 4.96481)
(5.98378 -3.11651e-19 4.91536)
(4.98198 7.57003e-19 5.45695)
(5.48561 7.89142e-21 5.42736)
(4.33396 -6.75087e-20 5.97033)
(4.903 4.10077e-19 5.97943)
(3.57596 -7.03661e-19 6.47925)
(4.21121 -7.63052e-19 6.55681)
(2.69422 4.93131e-20 6.9379)
(3.38195 6.73726e-19 7.12531)
(1.68933 -9.38796e-19 7.22505)
(2.38604 0 7.62316)
(1.28052 -9.63899e-19 7.83848)
(9.98805 -3.36623e-21 0.143623)
(9.99498 -1.70233e-21 0.0985519)
(9.96473 -1.66958e-21 0.238913)
(9.97981 -1.66359e-21 0.196236)
(9.93029 3.51328e-21 0.335918)
(9.95248 5.27595e-23 0.294847)
(9.88482 -1.29887e-22 0.4363)
(9.91384 3.4191e-21 0.396115)
(9.82833 -3.48214e-21 0.54167)
(9.86467 -3.51983e-21 0.501696)
(9.76075 -3.21216e-23 0.653557)
(9.80506 5.1548e-23 0.613205)
(9.68189 -1.48839e-20 0.77337)
(9.73483 -8.37538e-23 0.732153)
(9.59149 -1.45186e-20 0.902361)
(9.65374 -1.43738e-20 0.85991)
(9.48919 7.78954e-21 1.04161)
(9.56151 -7.77919e-21 0.997671)
(9.3746 7.6165e-21 1.19207)
(9.45783 4.88399e-22 1.14646)
(9.2473 0 1.35457)
(9.34234 -2.40273e-22 1.30717)
(9.10684 8.16987e-21 1.52997)
(9.21467 -7.47428e-21 1.48063)
(8.95269 7.99661e-21 1.71923)
(9.07442 -1.91168e-21 1.66776)
(8.78429 0 1.92355)
(8.92114 -5.98486e-21 1.86963)
(8.60091 -3.97015e-20 2.14443)
(8.7543 0 2.08762)
(8.40164 -1.24205e-20 2.38384)
(8.57324 -5.18863e-20 2.32352)
(8.18527 2.59883e-20 2.64425)
(8.37705 6.01868e-20 2.57965)
(7.95014 4.56843e-21 2.9287)
(8.16454 -5.1707e-20 2.85891)
(7.69398 4.48451e-21 3.24083)
(7.93399 7.829e-20 3.16492)
(7.41357 1.56055e-19 3.58493)
(7.68299 -3.50195e-20 3.50203)
(7.10438 -8.80017e-22 3.96585)
(7.40809 1.54723e-19 3.87542)
(6.75995 -1.51536e-19 4.38884)
(7.10425 -1.52975e-19 4.2911)
(6.37104 -3.14835e-19 4.85915)
(6.76414 -1.40865e-19 4.7558)
(5.92437 -3.28183e-19 5.381)
(6.37686 -6.58507e-20 5.27664)
(5.40103 -3.35547e-19 5.95571)
(5.92616 -1.58655e-19 5.86014)
(4.77471 -3.01636e-19 6.57755)
(5.38769 -3.13414e-19 6.50997)
(4.01082 6.42894e-19 7.22547)
(4.72533 6.12437e-21 7.2216)
(3.07091 6.10179e-19 7.85088)
(3.88964 6.30055e-19 7.96968)
(1.92426 -4.49442e-20 8.29818)
(2.79848 0 8.69089)
(1.49814 -5.87485e-19 9.11087)
(9.98885 7.96548e-25 0.152133)
(9.99531 -2.58914e-23 0.104008)
(9.96712 7.91224e-23 0.253134)
(9.98127 2.60458e-23 0.207129)
(9.9351 -1.59583e-24 0.356016)
(9.95596 1.57173e-22 0.311283)
(9.89294 -5.24883e-23 0.462507)
(9.92026 -1.58169e-22 0.418278)
(9.84067 5.56447e-23 0.574268)
(9.87493 0 0.529823)
(9.77827 -1.65554e-24 0.692889)
(9.82011 5.50009e-23 0.64758)
(9.70562 2.60971e-22 0.819839)
(9.75568 -5.53748e-23 0.773117)
(9.62253 -7.55947e-21 0.956426)
(9.68147 1.45481e-20 0.907858)
(9.52874 -1.49868e-20 1.10378)
(9.59728 -5.00621e-22 1.05304)
(9.42397 -7.37648e-21 1.26288)
(9.50292 1.85494e-22 1.20973)
(9.30792 -7.79405e-21 1.4346)
(9.39815 -2.11704e-21 1.37883)
(9.18027 -1.74945e-20 1.61983)
(9.28273 2.062e-21 1.56122)
(9.04068 -1.59359e-20 1.81959)
(9.15643 -2.36547e-21 1.75782)
(8.88875 -5.92295e-21 2.03515)
(9.01898 1.16183e-20 1.96976)
(8.72399 -1.2711e-20 2.26814)
(8.87007 -5.88983e-21 2.1985)
(8.54574 2.1814e-20 2.52073)
(8.70929 -1.15934e-20 2.44595)
(8.35312 -1.85788e-20 2.79565)
(8.53609 3.69289e-20 2.71463)
(8.14484 2.32116e-20 3.09639)
(8.34966 -5.01836e-20 3.00774)
(7.91908 3.77898e-20 3.42725)
(8.1488 4.87139e-20 3.32936)
(7.67315 -3.47202e-20 3.79348)
(7.93174 -3.50342e-20 3.68456)
(7.4031 0 4.20142)
(7.69581 -2.39355e-20 4.07961)
(7.10305 -1.42182e-19 4.65859)
(7.43698 -3.99404e-20 4.52225)
(6.76406 1.0894e-19 5.17375)
(7.14903 -1.41015e-19 5.02197)
(6.37241 1.03178e-19 5.75663)
(6.82222 3.39606e-19 5.59036)
(5.90677 -1.38035e-19 6.41698)
(6.44095 -1.10068e-19 6.24135)
(5.33376 0 7.16183)
(5.97961 2.47682e-20 6.99089)
(4.60132 5.27551e-21 7.98722)
(5.39447 0 7.85465)
(3.63236 5.06234e-21 8.86119)
(4.6144 3.30237e-20 8.83753)
(2.32373 -5.55455e-19 9.60669)
(3.47536 -9.09432e-21 9.91193)
(1.9039 -5.36339e-19 10.7712)
(9.98971 0 0.160026)
(9.99567 0 0.109045)
(9.96967 1.05653e-22 0.266299)
(9.98281 3.35797e-21 0.217172)
(9.94022 -3.09895e-24 0.374579)
(9.95965 -2.05066e-22 0.326404)
(9.90151 -1.03819e-22 0.486657)
(9.92701 3.62471e-21 0.438621)
(9.85366 0 0.604242)
(9.88568 -3.15491e-22 0.555577)
(9.79667 0 0.728971)
(9.83584 1.59631e-22 0.678976)
(9.73049 1.43996e-20 0.862364)
(9.77742 -4.871e-22 0.810432)
(9.65501 2.14337e-20 1.00577)
(9.71034 8.50641e-21 0.95141)
(9.57009 1.46779e-20 1.16035)
(9.63449 6.39487e-21 1.10318)
(9.47555 5.41848e-21 1.32711)
(9.54978 5.59175e-21 1.26682)
(9.37123 7.78342e-21 1.50693)
(9.45612 -7.29132e-21 1.44325)
(9.25696 1.7142e-20 1.70073)
(9.35341 9.53504e-21 1.63334)
(9.13259 2.53348e-20 1.90954)
(9.24158 1.49914e-20 1.83802)
(8.99794 1.14697e-20 2.13467)
(9.12059 -5.19668e-21 2.05845)
(8.85277 -4.82983e-21 2.37785)
(8.99036 5.60273e-21 2.29609)
(8.69676 3.99188e-21 2.64136)
(8.85081 1.45418e-20 2.55294)
(8.52944 4.50089e-21 2.92814)
(8.70177 -8.85408e-22 2.83162)
(8.35004 -2.37831e-20 3.24201)
(8.54295 -1.402e-20 3.13553)
(8.15743 -2.48477e-20 3.58779)
(8.37381 -9.19188e-21 3.46906)
(7.9498 -2.41499e-20 3.97153)
(8.19348 0 3.83779)
(7.72437 -6.40228e-20 4.40087)
(8.00051 7.47319e-21 4.2488)
(7.47675 -3.96097e-20 4.88545)
(7.79253 -9.01545e-21 4.71118)
(7.1999 9.3773e-20 5.43756)
(7.56572 0 5.23674)
(6.88228 1.22032e-19 6.07302)
(7.31368 3.46341e-20 5.84117)
(6.50439 5.45228e-20 6.81228)
(7.02551 7.9575e-20 6.54586)
(6.03207 2.44604e-20 7.6818)
(6.68203 -2.69907e-20 7.38104)
(5.40279 2.83223e-20 8.7135)
(6.2463 0 8.39131)
(4.49648 1.78625e-20 9.94185)
(5.6507 1.39101e-20 9.64294)
(3.0692 -1.52895e-21 11.2773)
(4.66325 -1.71289e-20 11.2437)
(2.76722 1.6128e-20 13.116)
(9.99061 3.39801e-21 0.167264)
(9.99603 0 0.113641)
(9.97235 3.00494e-21 0.278352)
(9.98441 3.19806e-21 0.226323)
(9.94557 3.46801e-21 0.391534)
(9.96348 -1.22703e-22 0.340155)
(9.91046 3.36668e-21 0.508656)
(9.93403 -2.23207e-21 0.457074)
(9.86717 -1.50304e-22 0.631468)
(9.89683 -5.17575e-22 0.578875)
(9.81576 -3.34984e-22 0.761646)
(9.85212 3.12457e-21 0.707296)
(9.75626 -6.2759e-21 0.900747)
(9.79991 -7.09396e-21 0.843983)
(9.68864 -6.55567e-21 1.05015)
(9.74017 -5.4301e-21 0.990429)
(9.61285 -2.70015e-21 1.21103)
(9.67292 -8.99459e-22 1.14792)
(9.52885 -7.26192e-21 1.3844)
(9.59818 4.77764e-21 1.31753)
(9.43662 -5.35503e-21 1.57114)
(9.51598 1.29938e-21 1.50018)
(9.33616 7.44473e-21 1.77216)
(9.42639 0 1.69672)
(9.22751 -1.57481e-20 1.98847)
(9.32953 5.28086e-22 1.90805)
(9.11071 -1.09531e-20 2.2214)
(9.22556 -3.71868e-20 2.13529)
(8.98586 2.50635e-20 2.4727)
(9.1147 -3.28439e-21 2.37992)
(8.85298 9.52249e-21 2.74467)
(8.99719 1.63345e-20 2.64389)
(8.71209 -1.95213e-20 3.04039)
(8.87332 1.73272e-20 2.92985)
(8.56309 6.09766e-22 3.36383)
(8.74336 -1.58456e-20 3.24126)
(8.40567 1.57318e-20 3.72009)
(8.60758 1.61717e-20 3.5826)
(8.23925 3.16689e-20 4.11575)
(8.46618 2.70469e-20 3.95965)
(8.06272 6.23066e-20 4.55928)
(8.31924 1.39515e-19 4.37985)
(7.8741 3.06498e-20 5.06178)
(8.16664 -7.50357e-20 4.85293)
(7.67 -5.8728e-20 5.63818)
(8.00793 1.97397e-19 5.3919)
(7.44431 -7.30226e-21 6.30918)
(7.84213 -2.53674e-19 6.01466)
(7.18596 -2.61589e-21 7.10484)
(7.66733 4.60828e-21 6.74708)
(6.87358 -5.07747e-20 8.0717)
(7.48057 -1.72763e-20 7.62893)
(6.46226 -1.42062e-20 9.28864)
(7.27712 2.70165e-20 8.72767)
(5.84134 -2.20827e-20 10.9271)
(7.07519 8.33785e-20 10.1756)
(4.64329 8.20807e-21 13.5389)
(6.9903 -8.17408e-20 12.3415)
(6.20186 6.83603e-19 16.8711)
(-0.477141 -3.74892e-19 0.296993)
(-0.256454 -9.04065e-21 0.450181)
(-1.09684 -1.12034e-18 0.345746)
(-0.790029 -2.42055e-19 0.551715)
(-1.80873 -3.01608e-19 0.375009)
(-1.48854 -8.88321e-19 0.618112)
(-2.5915 9.87657e-19 0.392159)
(-2.25961 4.1466e-19 0.670346)
(-3.42338 2.16132e-19 0.396234)
(-3.08887 -1.3861e-18 0.705317)
(-4.27884 -4.74143e-21 0.386021)
(-3.9531 -4.08259e-20 0.718322)
(-5.12778 7.19082e-21 0.360673)
(-4.82432 8.01854e-19 0.705021)
(-5.9355 -9.31058e-20 0.320016)
(-5.66912 -1.67362e-19 0.662067)
(-6.66342 7.81468e-20 0.264656)
(-6.44931 1.53328e-19 0.587569)
(-7.27063 -7.50797e-20 0.19598)
(-7.12325 0 0.481605)
(-7.71637 -9.5299e-20 0.116068)
(-7.6481 -7.72363e-20 0.346709)
(-7.96322 -3.64615e-20 0.027511)
(-7.98318 -1.27222e-19 0.187965)
(-7.98124 -1.7882e-20 -0.0673552)
(-8.09459 5.31254e-20 0.0133278)
(-7.75064 -3.42682e-21 -0.164416)
(-7.95921 -3.23666e-20 -0.167893)
(-7.26859 2.11736e-23 -0.256046)
(-7.57003 1.21995e-20 -0.342492)
(-6.55414 8.81852e-21 -0.334382)
(-6.93958 2.31849e-20 -0.49516)
(-5.64326 -1.81273e-22 -0.393787)
(-6.09887 -1.33796e-20 -0.615631)
(-4.58359 -1.95871e-21 -0.431284)
(-5.09213 -4.22599e-21 -0.698301)
(-3.42779 -1.48183e-22 -0.446924)
(-3.9716 1.9464e-21 -0.742582)
(-2.22658 -4.00156e-21 -0.4426)
(-2.78852 -2.08311e-21 -0.752462)
(-1.02494 0 -0.420079)
(-1.57162 -1.08659e-21 -0.733991)
(0.136837 0 -0.384366)
(-0.350325 1.09231e-21 -0.692075)
(1.2312 0 -0.343156)
(0.762904 -3.89801e-22 -0.635872)
(2.24052 0 -0.302034)
(1.82193 3.60438e-22 -0.57212)
(3.16241 2.73514e-23 -0.263485)
(2.80332 -3.73911e-23 -0.509867)
(3.99666 -1.42395e-23 -0.227943)
(3.69684 4.23014e-23 -0.450256)
(4.74572 -4.72765e-23 -0.195968)
(4.50355 -6.27457e-24 -0.394567)
(5.41534 -1.15552e-23 -0.168185)
(5.22786 1.89986e-24 -0.344294)
(6.01488 0 -0.148017)
(5.87448 -1.98122e-23 -0.300923)
(6.58373 -1.28911e-23 -0.275036)
(-0.504209 1.26706e-19 0.780248)
(-0.246333 -7.52632e-18 0.987931)
(-1.17325 -6.56253e-22 0.894051)
(-0.808088 6.81305e-18 1.16006)
(-1.92079 -1.86506e-19 0.975461)
(-1.547 -2.98562e-18 1.27803)
(-2.73114 -1.94642e-18 1.03715)
(-2.34359 3.33011e-18 1.37302)
(-3.58511 -1.6565e-18 1.07177)
(-3.19288 -3.7033e-18 1.43571)
(-4.4584 7.57675e-19 1.07192)
(-4.07334 1.72136e-18 1.45585)
(-5.32095 6.36216e-19 1.03119)
(-4.95736 -4.07062e-19 1.42385)
(-6.13726 7.51452e-20 0.945182)
(-5.8111 0 1.33237)
(-6.86762 7.66456e-20 0.812149)