/*--------------------------------*- C++ -*----------------------------------*\
| =========                 |                                                 |
| \\      /  F ield         | OpenFOAM: The Open Source CFD Toolbox           |
|  \\    /   O peration     | Version:  2012                                  |
|   \\  /    A nd           | Website:  www.openfoam.com                      |
|    \\/     M anipulation  |                                                 |
\*---------------------------------------------------------------------------*/
FoamFile
{
    version     2.0;
    format      ascii;
    class       volVectorField;
    location    "0.1";
    object      cellDisplacement;
}
// * * * * * * * * * * * * * * * * * * * * * * * * * * * * * * * * * * * * * //

dimensions      [0 1 0 0 0 0 0];


internalField   nonuniform List<vector> 
2790
(
(1.01717e-10 0 6.77795e-13)
(4.13043e-10 0 2.80191e-12)
(1.20064e-09 0 8.36694e-12)
(3.29163e-09 0 2.36283e-11)
(8.64767e-09 0 6.39917e-11)
(2.18151e-08 0 1.66488e-10)
(5.28821e-08 0 4.16449e-10)
(1.23258e-07 0 1.00229e-09)
(2.76399e-07 0 2.32295e-09)
(5.96653e-07 0 5.18901e-09)
(1.24054e-06 0 1.11829e-08)
(2.48563e-06 0 2.32769e-08)
(4.80185e-06 0 4.68513e-08)
(8.94776e-06 0 9.13142e-08)
(1.60883e-05 0 1.72606e-07)
(2.79197e-05 0 3.16993e-07)
(4.67705e-05 0 5.66775e-07)
(7.56266e-05 0 9.88905e-07)
(0.000118002 0 1.68823e-06)
(0.000177554 0 2.82822e-06)
(0.000257335 0 4.664e-06)
(0.000358556 0 7.59518e-06)
(0.000478813 0 1.22489e-05)
(0.000609808 0 1.9604e-05)
(0.000734828 0 3.11597e-05)
(0.00082677 0 4.91133e-05)
(0.000848608 0 7.63973e-05)
(0.000760844 0 0.000116)
(0.00054719 0 0.00016716)
(0.000289839 0 0.000209344)
(6.90191e-11 0 1.80296e-12)
(2.87526e-10 0 7.49873e-12)
(8.55043e-10 0 2.25232e-11)
(2.39014e-09 0 6.39364e-11)
(6.39858e-09 0 1.7404e-10)
(1.64417e-08 0 4.55087e-10)
(4.05819e-08 0 1.14401e-09)
(9.62717e-08 0 2.76682e-09)
(2.19632e-07 0 6.44303e-09)
(4.82132e-07 0 1.44589e-08)
(1.01894e-06 0 3.12981e-08)
(2.0743e-06 0 6.54175e-08)
(4.06957e-06 0 1.32179e-07)
(7.6979e-06 0 2.58516e-07)
(1.40447e-05 0 4.90126e-07)
(2.47232e-05 0 9.02303e-07)
(4.19992e-05 0 1.61604e-06)
(6.88579e-05 0 2.82199e-06)
(0.000108943 0 4.81641e-06)
(0.000166272 0 8.05622e-06)
(0.000244635 0 1.32443e-05)
(0.000346562 0 2.14618e-05)
(0.00047185 0 3.43688e-05)
(0.0006157 0 5.44872e-05)
(0.000766783 0 8.55339e-05)
(0.00090597 0 0.000132612)
(0.00100731 0 0.000201644)
(0.00104463 0 0.000296495)
(0.00101041 0 0.000410714)
(0.00095257 0 0.000508931)
(5.99868e-11 0 2.6304e-12)
(2.53296e-10 0 1.10345e-11)
(7.59353e-10 0 3.33823e-11)
(2.13847e-09 0 9.53624e-11)
(5.76693e-09 0 2.61196e-10)
(1.4927e-08 0 6.87186e-10)
(3.71118e-08 0 1.73793e-09)
(8.86784e-08 0 4.22817e-09)
(2.0377e-07 0 9.90284e-09)
(4.5053e-07 0 2.23463e-08)
(9.58991e-07 0 4.86261e-08)
(1.96628e-06 0 1.02133e-07)
(3.88548e-06 0 2.07281e-07)
(7.40323e-06 0 4.06965e-07)
(1.36073e-05 0 7.73987e-07)
(2.41363e-05 0 1.42802e-06)
(4.13299e-05 0 2.5603e-06)
(6.83386e-05 0 4.4691e-06)
(0.000109131 0 7.61089e-06)
(0.000168319 0 1.26744e-05)
(0.000250714 0 2.06891e-05)
(0.000360554 0 3.31826e-05)
(0.000500392 0 5.24014e-05)
(0.000669764 0 8.15899e-05)
(0.000863904 0 0.000125243)
(0.00107296 0 0.000189011)
(0.00128212 0 0.000278331)
(0.00147252 0 0.000393666)
(0.00162176 0 0.000519313)
(0.00170433 0 0.000608216)
(5.27954e-11 0 3.33278e-12)
(2.24957e-10 0 1.40799e-11)
(6.79811e-10 0 4.28346e-11)
(1.92959e-09 0 1.22987e-10)
(5.2445e-09 0 3.38561e-10)
(1.36811e-08 0 8.95224e-10)
(3.42798e-08 0 2.27544e-09)
(8.25485e-08 0 5.56325e-09)
(1.91155e-07 0 1.30927e-08)
(4.25909e-07 0 2.96819e-08)
(9.13591e-07 0 6.48731e-08)
(1.88771e-06 0 1.36812e-07)
(3.75927e-06 0 2.78661e-07)
(7.21924e-06 0 5.48748e-07)
(1.33758e-05 0 1.04594e-06)
(2.39222e-05 0 1.93208e-06)
(4.13177e-05 0 3.46362e-06)
(6.89467e-05 0 6.03506e-06)
(0.000111201 0 1.02375e-05)
(0.000173419 0 1.69365e-05)
(0.000261597 0 2.73736e-05)
(0.000381847 0 4.32946e-05)
(0.000539585 0 6.70968e-05)
(0.000738543 0 0.000101957)
(0.000979766 0 0.000151816)
(0.00126058 0 0.000220866)
(0.00157278 0 0.000311676)
(0.00189714 0 0.000420139)
(0.00218978 0 0.000525428)
(0.00236709 0 0.000583951)
(4.69568e-11 0 3.92825e-12)
(2.01474e-10 0 1.66905e-11)
(6.13693e-10 0 5.10247e-11)
(1.75609e-09 0 1.4718e-10)
(4.81182e-09 0 4.07047e-10)
(1.26543e-08 0 1.08139e-09)
(3.19632e-08 0 2.76162e-09)
(7.75895e-08 0 6.78371e-09)
(1.81112e-07 0 1.6039e-08)
(4.06755e-07 0 3.65248e-08)
(8.79459e-07 0 8.0171e-08)
(1.83166e-06 0 1.69746e-07)
(3.67682e-06 0 3.46968e-07)
(7.11776e-06 0 6.85288e-07)
(1.32954e-05 0 1.30908e-06)
(2.39768e-05 0 2.42108e-06)
(4.17681e-05 0 4.33992e-06)
(7.03237e-05 0 7.549e-06)
(0.000114499 0 1.27571e-05)
(0.000180382 0 2.09692e-05)
(0.000275128 0 3.3563e-05)
(0.000406544 0 5.23559e-05)
(0.0005824 0 7.96335e-05)
(0.00080948 0 0.000118071)
(0.00109236 0 0.000170407)
(0.00143157 0 0.000238592)
(0.00181971 0 0.0003218)
(0.00223152 0 0.000412164)
(0.00260295 0 0.000487638)
(0.00281555 0 0.000514222)
(4.21474e-11 0 4.43012e-12)
(1.81906e-10 0 1.89111e-11)
(5.58401e-10 0 5.80654e-11)
(1.61088e-09 0 1.68207e-10)
(4.44991e-09 0 4.67245e-10)
(1.17976e-08 0 1.24689e-09)
(3.00404e-08 0 3.19883e-09)
(7.35084e-08 0 7.89377e-09)
(1.72957e-07 0 1.87487e-08)
(3.91527e-07 0 4.28868e-08)
(8.53224e-07 0 9.45417e-08)
(1.79101e-06 0 2.00986e-07)
(3.62348e-06 0 4.12346e-07)
(7.06968e-06 0 8.17025e-07)
(1.33099e-05 0 1.5647e-06)
(2.41941e-05 0 2.8987e-06)
(4.24869e-05 0 5.1991e-06)
(7.21221e-05 0 9.03603e-06)
(0.000118415 0 1.52307e-05)
(0.000188163 0 2.49163e-05)
(0.000289544 0 3.95851e-05)
(0.000431728 0 6.10928e-05)
(0.000624125 0 9.15747e-05)
(0.000875182 0 0.000133191)
(0.00119058 0 0.000187575)
(0.00157028 0 0.000254798)
(0.00200295 0 0.000331494)
(0.00245387 0 0.000407515)
(0.00284284 0 0.000461035)
(0.00303968 0 0.000465438)
(3.81316e-11 0 4.84922e-12)
(1.65436e-10 0 2.07798e-11)
(5.11615e-10 0 6.40474e-11)
(1.48751e-09 0 1.86261e-10)
(4.14157e-09 0 5.19504e-10)
(1.10665e-08 0 1.39222e-09)
(2.83991e-08 0 3.58717e-09)
(7.00318e-08 0 8.89122e-09)
(1.66047e-07 0 2.12118e-08)
(3.78758e-07 0 4.87352e-08)
(8.31658e-07 0 1.07898e-07)
(1.75888e-06 0 2.3033e-07)
(3.58508e-06 0 4.74373e-07)
(7.04674e-06 0 9.43193e-07)
(1.33648e-05 0 1.81166e-06)
(2.44728e-05 0 3.36387e-06)
(4.32917e-05 0 6.04199e-06)
(7.40251e-05 0 1.05047e-05)
(0.000122421 0 1.76897e-05)
(0.000195917 0 2.88672e-05)
(0.000303566 0 4.56653e-05)
(0.0004556 0 7.00291e-05)
(0.000662502 0 0.000104063)
(0.000933412 0 0.000149677)
(0.00127359 0 0.000207943)
(0.00168039 0 0.000278047)
(0.0021364 0 0.000355676)
(0.00259645 0 0.000430385)
(0.00296697 0 0.000481608)
(0.003117 0 0.000484788)
(3.47332e-11 0 5.19565e-12)
(1.51393e-10 0 2.23325e-11)
(4.71395e-10 0 6.90543e-11)
(1.3806e-09 0 2.01503e-10)
(3.87225e-09 0 5.64056e-10)
(1.04229e-08 0 1.5174e-09)
(2.69429e-08 0 3.92536e-09)
(6.6923e-08 0 9.76963e-09)
(1.59818e-07 0 2.34054e-08)
(3.67152e-07 0 5.4003e-08)
(8.11874e-07 0 1.20063e-07)
(1.72906e-06 0 2.57348e-07)
(3.5487e-06 0 5.32092e-07)
(7.02303e-06 0 1.06181e-06)
(1.34101e-05 0 2.04614e-06)
(2.47199e-05 0 3.80976e-06)
(4.40169e-05 0 6.85754e-06)
(7.57512e-05 0 1.19392e-05)
(0.000126063 0 2.01154e-05)
(0.000202963 0 3.28091e-05)
(0.000316266 0 5.18182e-05)
(0.000477092 0 7.92503e-05)
(0.000696758 0 0.000117329)
(0.000984802 0 0.000168008)
(0.00134586 0 0.000232333)
(0.00177489 0 0.000309496)
(0.00224965 0 0.000395537)
(0.00271774 0 0.000481319)
(0.00307739 0 0.000548789)
(0.00319753 0 0.000572242)
(3.18234e-11 0 5.48009e-12)
(1.39264e-10 0 2.36081e-11)
(4.36249e-10 0 7.31777e-11)
(1.286e-09 0 2.14116e-10)
(3.63069e-09 0 6.01163e-10)
(9.83721e-09 0 1.62251e-09)
(2.55963e-08 0 4.21189e-09)
(6.39949e-08 0 1.05212e-08)
(1.53821e-07 0 2.53017e-08)
(3.55658e-07 0 5.86048e-08)
(7.91495e-07 0 1.30804e-07)
(1.69635e-06 0 2.81459e-07)
(3.50339e-06 0 5.84145e-07)
(6.97627e-06 0 1.16988e-06)
(1.34021e-05 0 2.26196e-06)
(2.48536e-05 0 4.22423e-06)
(4.45155e-05 0 7.623e-06)
(7.70495e-05 0 1.32987e-05)
(0.000128937 0 2.24369e-05)
(0.000208696 0 3.66211e-05)
(0.000326826 0 5.78377e-05)
(0.000495279 0 8.83949e-05)
(0.000726228 0 0.000130707)
(0.00102985 0 0.000186894)
(0.00141088 0 0.00025815)
(0.00186348 0 0.000343866)
(0.00236374 0 0.000440482)
(0.00285726 0 0.000539721)
(0.00324032 0 0.000624846)
(0.00337734 0 0.00066806)
(2.93148e-11 0 5.7148e-12)
(1.28693e-10 0 2.46527e-11)
(4.05148e-10 0 7.65318e-11)
(1.20085e-09 0 2.24345e-10)
(3.40927e-09 0 6.31264e-10)
(9.28939e-09 0 1.70802e-09)
(2.43078e-08 0 4.44619e-09)
(6.11182e-08 0 1.11399e-08)
(1.47738e-07 0 2.68752e-08)
(3.43522e-07 0 6.24572e-08)
(7.68778e-07 0 1.3988e-07)
(1.65684e-06 0 3.02028e-07)
(3.44068e-06 0 6.28987e-07)
(6.88881e-06 0 1.26389e-06)
(1.33055e-05 0 2.45147e-06)
(2.48054e-05 0 4.59152e-06)
(4.46611e-05 0 8.30729e-06)
(7.76968e-05 0 1.4524e-05)
(0.000130668 0 2.45452e-05)
(0.00021252 0 4.0106e-05)
(0.000334363 0 6.33698e-05)
(0.00050895 0 9.68264e-05)
(0.000749406 0 0.000143041)
(0.00106692 0 0.000204208)
(0.00146716 0 0.000281462)
(0.00194504 0 0.000373943)
(0.00247717 0 0.00047758)
(0.0030095 0 0.000583298)
(0.00343678 0 0.000673583)
(0.00361186 0 0.000720249)
(2.71562e-11 0 5.91445e-12)
(1.19474e-10 0 2.55231e-11)
(3.77514e-10 0 7.92659e-11)
(1.12363e-09 0 2.32541e-10)
(3.20397e-09 0 6.55099e-10)
(8.76906e-09 0 1.77525e-09)
(2.30508e-08 0 4.62983e-09)
(5.82251e-08 0 1.16249e-08)
(1.414e-07 0 2.81122e-08)
(3.30323e-07 0 6.55003e-08)
(7.42703e-07 0 1.47094e-07)
(1.60814e-06 0 3.18498e-07)
(3.35512e-06 0 6.65171e-07)
(6.74866e-06 0 1.34036e-06)
(1.30948e-05 0 2.60685e-06)
(2.4524e-05 0 4.89495e-06)
(4.43537e-05 0 8.8765e-06)
(7.75061e-05 0 1.55491e-05)
(0.000130921 0 2.63165e-05)
(0.000213858 0 4.30394e-05)
(0.000337913 0 6.80191e-05)
(0.000516546 0 0.000103863)
(0.000763829 0 0.000153179)
(0.00109213 0 0.000218034)
(0.00150847 0 0.000299157)
(0.00200912 0 0.000394869)
(0.00257168 0 0.00049979)
(0.00314186 0 0.000603286)
(0.00361044 0 0.000687274)
(0.00381671 0 0.000726987)
(2.53279e-11 0 6.09672e-12)
(1.11534e-10 0 2.62895e-11)
(3.5318e-10 0 8.1574e-11)
(1.054e-09 0 2.39198e-10)
(3.01418e-09 0 6.73827e-10)
(8.27518e-09 0 1.82668e-09)
(2.18232e-08 0 4.76753e-09)
(5.531e-08 0 1.19835e-08)
(1.34786e-07 0 2.90186e-08)
(3.15989e-07 0 6.77201e-08)
(7.13032e-07 0 1.52351e-07)
(1.54952e-06 0 3.30516e-07)
(3.24468e-06 0 6.91662e-07)
(6.55057e-06 0 1.39659e-06)
(1.27573e-05 0 2.72163e-06)
(2.398e-05 0 5.12009e-06)
(4.35296e-05 0 9.30035e-06)
(7.63458e-05 0 1.6314e-05)
(0.000129436 0 2.76377e-05)
(0.000212214 0 4.52188e-05)
(0.000336569 0 7.14411e-05)
(0.000516449 0 0.000108953)
(0.00076667 0 0.00016029)
(0.00110064 0 0.000227234)
(0.00152665 0 0.000309881)
(0.00204222 0 0.000405461)
(0.00262556 0 0.0005071)
(0.00322123 0 0.000602855)
(0.00371582 0 0.00067534)
(0.00394025 0 0.000705537)
(2.38366e-11 0 6.28266e-12)
(1.04911e-10 0 2.70376e-11)
(3.3233e-10 0 8.37012e-11)
(9.92685e-10 0 2.44968e-10)
(2.84233e-09 0 6.89094e-10)
(7.81508e-09 0 1.86623e-09)
(2.06454e-08 0 4.86793e-09)
(5.2425e-08 0 1.22333e-08)
(1.28021e-07 0 2.96268e-08)
(3.00793e-07 0 6.91664e-08)
(6.80322e-07 0 1.55702e-07)
(1.48201e-06 0 3.3806e-07)
(3.11104e-06 0 7.08117e-07)
(6.29675e-06 0 1.43127e-06)
(1.22947e-05 0 2.79209e-06)
(2.31713e-05 0 5.25772e-06)
(4.21732e-05 0 9.5582e-06)
(7.41658e-05 0 1.67761e-05)
(0.000126083 0 2.8427e-05)
(0.000207292 0 4.64986e-05)
(0.000329703 0 7.33982e-05)
(0.000507414 0 0.000111745)
(0.000755599 0 0.000163939)
(0.0010883 0 0.000231437)
(0.00151473 0 0.000313734)
(0.00203336 0 0.000407133)
(0.00262281 0 0.000503611)
(0.00322628 0 0.000590357)
(0.00372683 0 0.000650792)
(0.00395215 0 0.000670856)
(2.27095e-11 0 6.4969e-12)
(9.97367e-11 0 2.78687e-11)
(3.15436e-10 0 8.59453e-11)
(9.41247e-10 0 2.50672e-10)
(2.69332e-09 0 7.03054e-10)
(7.40311e-09 0 1.89929e-09)
(1.95568e-08 0 4.94391e-09)
(4.96729e-08 0 1.24033e-08)
(1.21358e-07 0 2.99987e-08)
(2.85325e-07 0 6.99631e-08)
(6.4587e-07 0 1.57376e-07)
(1.40831e-06 0 3.41512e-07)
(2.95954e-06 0 7.15086e-07)
(5.99719e-06 0 1.445e-06)
(1.17246e-05 0 2.81834e-06)
(2.21259e-05 0 5.30611e-06)
(4.03262e-05 0 9.64348e-06)
(7.1019e-05 0 1.69183e-05)
(0.000120912 0 2.8648e-05)
(0.000199097 0 4.68108e-05)
(0.00031718 0 7.37797e-05)
(0.000488982 0 0.000112093)
(0.00072951 0 0.000163997)
(0.00105289 0 0.000230703)
(0.00146882 0 0.000311372)
(0.00197678 0 0.000401935)
(0.00255662 0 0.00049406)
(0.00315191 0 0.000574794)
(0.00364384 0 0.000627793)
(0.00386064 0 0.000640937)
(2.19901e-11 0 6.76766e-12)
(9.62071e-11 0 2.88997e-11)
(3.0318e-10 0 8.86548e-11)
(9.019e-10 0 2.57289e-10)
(2.57392e-09 0 7.18349e-10)
(7.0589e-09 0 1.93269e-09)
(1.86117e-08 0 5.01244e-09)
(4.71959e-08 0 1.25341e-08)
(1.15151e-07 0 3.02263e-08)
(2.70431e-07 0 7.03099e-08)
(6.11602e-07 0 1.57787e-07)
(1.33262e-06 0 3.41689e-07)
(2.79887e-06 0 7.14096e-07)
(5.66906e-06 0 1.44047e-06)
(1.10793e-05 0 2.80486e-06)
(2.09028e-05 0 5.27221e-06)
(3.80897e-05 0 9.56622e-06)
(6.7071e-05 0 1.67539e-05)
(0.00011418 0 2.83167e-05)
(0.000188 0 4.61739e-05)
(0.000299499 0 7.26077e-05)
(0.000461746 0 0.00011003)
(0.00068898 0 0.000160534)
(0.00099474 0 0.000225201)
(0.0013887 0 0.000303192)
(0.00187163 0 0.000390769)
(0.00242687 0 0.000480503)
(0.003003 0 0.000560829)
(0.00348037 0 0.000616196)
(0.00366171 0 0.000631577)
(0.000270356 0 -0.00016493)
(0.000540167 0 -0.000122333)
(0.000758187 0 -7.62551e-05)
(0.000833963 0 -4.39808e-05)
(0.000800101 0 -2.42632e-05)
(0.00070059 0 -1.29268e-05)
(0.000572575 0 -6.64598e-06)
(0.000442276 0 -3.27291e-06)
(0.000325301 0 -1.52077e-06)
(0.000228877 0 -6.47412e-07)
(0.000154488 0 -2.36016e-07)
(0.000100219 0 -5.80904e-08)
(6.25538e-05 0 8.1742e-09)
(3.75927e-05 0 2.5332e-08)
(2.17598e-05 0 2.38158e-08)
(1.21331e-05 0 1.72478e-08)
(6.51706e-06 0 1.09133e-08)
(3.37163e-06 0 6.29581e-09)
(1.67978e-06 0 3.37614e-09)
(8.05699e-07 0 1.70024e-09)
(3.7194e-07 0 8.08956e-10)
(1.65198e-07 0 3.65012e-10)
(7.05694e-08 0 1.56586e-10)
(2.89829e-08 0 6.39778e-11)
(1.14396e-08 0 2.49288e-11)
(4.33754e-09 0 9.27226e-12)
(1.57884e-09 0 3.2935e-12)
(5.49999e-10 0 1.1139e-12)
(1.78541e-10 0 3.47512e-13)
(3.90524e-11 0 6.92298e-14)
(0.000911854 0 -0.000369719)
(0.000993687 0 -0.000276341)
(0.00103766 0 -0.000178739)
(0.000993105 0 -0.000106564)
(0.000884489 0 -6.01209e-05)
(0.000741283 0 -3.24294e-05)
(0.000589089 0 -1.67309e-05)
(0.00044632 0 -8.18934e-06)
(0.000323617 0 -3.73078e-06)
(0.000225144 0 -1.51705e-06)
(0.000150551 0 -4.91028e-07)
(9.68706e-05 0 -6.42366e-08)
(6.00193e-05 0 7.96343e-08)
(3.58226e-05 0 1.03112e-07)
(2.06003e-05 0 8.44865e-08)
(1.14144e-05 0 5.78441e-08)
(6.09341e-06 0 3.55066e-08)
(3.13344e-06 0 2.01001e-08)
(1.55179e-06 0 1.06407e-08)
(7.399e-07 0 5.30885e-09)
(3.39551e-07 0 2.50805e-09)
(1.49926e-07 0 1.12539e-09)
(6.36699e-08 0 4.80615e-10)
(2.59962e-08 0 1.95645e-10)
(1.02009e-08 0 7.59965e-11)
(3.84532e-09 0 2.81927e-11)
(1.39165e-09 0 9.99187e-12)
(4.82306e-10 0 3.37394e-12)
(1.56481e-10 0 1.05349e-12)
(3.5249e-11 0 2.13961e-13)
(0.00165959 0 -0.000359819)
(0.00160412 0 -0.00028152)
(0.00146922 0 -0.000189741)
(0.00127234 0 -0.000116843)
(0.00105639 0 -6.72776e-05)
(0.000843898 0 -3.65158e-05)
(0.000648956 0 -1.86156e-05)
(0.000480533 0 -8.75792e-06)
(0.00034276 0 -3.63615e-06)
(0.000235613 0 -1.16516e-06)
(0.000156134 0 -9.99579e-08)
(9.9767e-05 0 2.6938e-07)
(6.14776e-05 0 3.27971e-07)
(3.65337e-05 0 2.71641e-07)
(2.09354e-05 0 1.90859e-07)
(1.15668e-05 0 1.20953e-07)
(6.16024e-06 0 7.09167e-08)
(3.16164e-06 0 3.8962e-08)
(1.56325e-06 0 2.02025e-08)
(7.44381e-07 0 9.92955e-09)
(3.41237e-07 0 4.63912e-09)
(1.50538e-07 0 2.06418e-09)
(6.38847e-08 0 8.75898e-10)
(2.60693e-08 0 3.54802e-10)
(1.02251e-08 0 1.37303e-10)
(3.85324e-09 0 5.07927e-11)
(1.39422e-09 0 1.79654e-11)
(4.83183e-10 0 6.05988e-12)
(1.56847e-10 0 1.89539e-12)
(3.53502e-11 0 3.91947e-13)
(0.00231912 0 -0.000209071)
(0.0021735 0 -0.000169078)
(0.00190185 0 -0.000117863)
(0.00157233 0 -7.44591e-05)
(0.00125294 0 -4.29369e-05)
(0.000967942 0 -2.24015e-05)
(0.000725033 0 -1.01802e-05)
(0.000526036 0 -3.53507e-06)
(0.000369321 0 -3.12524e-07)
(0.000250735 0 9.7623e-07)
(0.000164522 0 1.27513e-06)
(0.000104293 0 1.13824e-06)
(6.38509e-05 0 8.6328e-07)
(3.77412e-05 0 5.91294e-07)
(2.1531e-05 0 3.75152e-07)
(1.18515e-05 0 2.23294e-07)
(6.29191e-06 0 1.25571e-07)
(3.22061e-06 0 6.70041e-08)
(1.58881e-06 0 3.40162e-08)
(7.55104e-07 0 1.64598e-08)
(3.45594e-07 0 7.60071e-09)
(1.52253e-07 0 3.35246e-09)
(6.45389e-08 0 1.41332e-09)
(2.63115e-08 0 5.69783e-10)
(1.03121e-08 0 2.19767e-10)
(3.88361e-09 0 8.1124e-11)
(1.40453e-09 0 2.8661e-11)
(4.86599e-10 0 9.66668e-12)
(1.57951e-10 0 3.02953e-12)
(3.55951e-11 0 6.3356e-13)
(0.0027664 0 2.25946e-06)
(0.00259036 0 2.59307e-07)
(0.0022481 0 4.90604e-07)
(0.00183338 0 1.97663e-06)
(0.00143723 0 4.58021e-06)
(0.00109199 0 6.73566e-06)
(0.000805407 0 7.67224e-06)
(0.000576397 0 7.44517e-06)
(0.000399905 0 6.45809e-06)
(0.000268753 0 5.14103e-06)
(0.000174821 0 3.81424e-06)
(0.000110004 0 2.66249e-06)
(6.69211e-05 0 1.75912e-06)
(3.93414e-05 0 1.10439e-06)
(2.23392e-05 0 6.60515e-07)
(1.22468e-05 0 3.76987e-07)
(6.47926e-06 0 2.05568e-07)
(3.30658e-06 0 1.07181e-07)
(1.62701e-06 0 5.34625e-08)
(7.71549e-07 0 2.55226e-08)
(3.5245e-07 0 1.16646e-08)
(1.55022e-07 0 5.10475e-09)
(6.56228e-08 0 2.13955e-09)
(2.67226e-08 0 8.58989e-10)
(1.04632e-08 0 3.304e-10)
(3.93745e-09 0 1.21772e-10)
(1.42312e-09 0 4.29996e-11)
(4.92814e-10 0 1.45104e-11)
(1.59922e-10 0 4.55755e-12)
(3.6023e-11 0 9.61089e-13)
(0.00299194 0 0.000199409)
(0.00283665 0 0.000164976)
(0.00248516 0 0.000123683)
(0.00203403 0 8.80426e-05)
(0.00159232 0 6.24063e-05)
(0.00120412 0 4.47123e-05)
(0.000882306 0 3.22413e-05)
(0.000626825 0 2.31426e-05)
(0.000431681 0 1.63561e-05)
(0.000288051 0 1.12858e-05)
(0.000186137 0 7.55825e-06)
(0.000116419 0 4.89414e-06)
(7.04394e-05 0 3.05649e-06)
(4.12088e-05 0 1.83807e-06)
(2.32988e-05 0 1.06323e-06)
(1.27243e-05 0 5.9115e-07)
(6.70936e-06 0 3.15743e-07)
(3.41399e-06 0 1.61942e-07)
(1.67558e-06 0 7.97326e-08)
(7.92829e-07 0 3.76754e-08)
(3.61484e-07 0 1.70821e-08)
(1.58739e-07 0 7.43056e-09)
(6.7104e-08 0 3.10067e-09)
(2.72947e-08 0 1.24114e-09)
(1.06773e-08 0 4.76555e-10)
(4.01503e-09 0 1.75525e-10)
(1.45034e-09 0 6.20032e-11)
(5.02036e-10 0 2.09514e-11)
(1.62866e-10 0 6.59845e-12)
(3.66655e-11 0 1.40137e-12)
(0.00307442 0 0.000322616)
(0.00296967 0 0.000279544)
(0.00264381 0 0.000221153)
(0.00218616 0 0.000164948)
(0.00172008 0 0.000119815)
(0.00130221 0 8.58073e-05)
(0.000952717 0 6.06716e-05)
(0.000674682 0 4.22292e-05)
(0.000462721 0 2.88137e-05)
(0.000307356 0 1.91949e-05)
(0.000197689 0 1.24413e-05)
(0.000123084 0 7.8238e-06)
(7.41529e-05 0 4.763e-06)
(4.32093e-05 0 2.8022e-06)
(2.43416e-05 0 1.59103e-06)
(1.32507e-05 0 8.70843e-07)
(6.96671e-06 0 4.59095e-07)
(3.53593e-06 0 2.32945e-07)
(1.73159e-06 0 1.13694e-07)
(8.17764e-07 0 5.33512e-08)
(3.72248e-07 0 2.40604e-08)
(1.63244e-07 0 1.0425e-08)
(6.89319e-08 0 4.3387e-09)
(2.80134e-08 0 1.73412e-09)
(1.09511e-08 0 6.65558e-10)
(4.11603e-09 0 2.45276e-10)
(1.4864e-09 0 8.67706e-11)
(5.1445e-10 0 2.93905e-11)
(1.66881e-10 0 9.28872e-12)
(3.75522e-11 0 1.98594e-12)
(0.00316223 0 0.000361346)
(0.0030898 0 0.000336151)
(0.0027806 0 0.000286109)
(0.00231737 0 0.000226914)
(0.00183186 0 0.000172414)
(0.00138957 0 0.000127033)
(0.00101656 0 9.11074e-05)
(0.000718809 0 6.36366e-05)
(0.000491787 0 4.32552e-05)
(0.000325692 0 2.85765e-05)
(0.000208806 0 1.83243e-05)
(0.000129579 0 1.13898e-05)
(7.78166e-05 0 6.85378e-06)
(4.52075e-05 0 3.98816e-06)
(2.53966e-05 0 2.24181e-06)
(1.37903e-05 0 1.21622e-06)
(7.23432e-06 0 6.363e-07)
(3.66466e-06 0 3.20805e-07)
(1.79168e-06 0 1.55769e-07)
(8.44985e-07 0 7.28037e-08)
(3.84215e-07 0 3.27389e-08)
(1.68348e-07 0 1.41596e-08)
(7.10437e-08 0 5.88823e-09)
(2.88604e-08 0 2.35379e-09)
(1.12803e-08 0 9.04346e-10)
(4.23991e-09 0 3.33918e-10)
(1.53149e-09 0 1.18457e-10)
(5.30267e-10 0 4.02671e-11)
(1.72084e-10 0 1.27834e-11)
(3.87164e-11 0 2.7515e-12)
(0.00334806 0 0.000373206)
(0.00326088 0 0.000369807)
(0.00293312 0 0.000335615)
(0.00244711 0 0.000280748)
(0.00193618 0 0.000222085)
(0.00146893 0 0.000168289)
(0.00107388 0 0.000122876)
(0.000758308 0 8.66892e-05)
(0.000517844 0 5.91724e-05)
(0.000342202 0 3.90985e-05)
(0.00021888 0 2.50095e-05)
(0.000135512 0 1.54825e-05)
(8.11954e-05 0 9.27177e-06)
(4.70708e-05 0 5.36812e-06)
(2.63928e-05 0 3.00291e-06)
(1.43072e-05 0 1.62197e-06)
(7.49484e-06 0 8.45366e-07)
(3.79223e-06 0 4.24903e-07)
(1.85238e-06 0 2.05844e-07)
(8.73059e-07 0 9.60664e-08)
(3.96829e-07 0 4.31719e-08)
(1.73852e-07 0 1.86752e-08)
(7.33741e-08 0 7.77377e-09)
(2.98172e-08 0 3.11313e-09)
(1.16609e-08 0 1.1992e-09)
(4.38642e-09 0 4.44285e-10)
(1.58601e-09 0 1.58263e-10)
(5.49799e-10 0 5.40622e-11)
(1.7863e-10 0 1.72591e-11)
(4.02015e-11 0 3.74087e-12)
(0.00358578 0 0.000416015)
(0.00346255 0 0.000419394)
(0.00309484 0 0.000391338)
(0.00257318 0 0.000336847)
(0.00203153 0 0.000272952)
(0.0015386 0 0.000210649)
(0.00112295 0 0.000155801)
(0.000791611 0 0.000110848)
(0.000539642 0 7.60383e-05)
(0.000355981 0 5.03627e-05)
(0.000227306 0 3.22334e-05)
(0.000140504 0 1.99426e-05)
(8.40645e-05 0 1.19275e-05)
(4.8673e-05 0 6.89486e-06)
(2.72631e-05 0 3.85089e-06)
(1.47674e-05 0 2.07715e-06)
(7.73175e-06 0 1.08153e-06)
(3.91104e-06 0 5.43333e-07)
(1.9104e-06 0 2.63234e-07)
(9.00636e-07 0 1.22934e-07)
(4.09575e-07 0 5.53204e-08)
(1.79575e-07 0 2.39788e-08)
(7.58674e-08 0 1.00086e-08)
(3.08699e-08 0 4.02185e-09)
(1.20911e-08 0 1.55566e-09)
(4.55638e-09 0 5.79154e-10)
(1.65083e-09 0 2.07458e-10)
(5.73559e-10 0 7.13112e-11)
(1.86755e-10 0 2.29201e-11)
(4.20705e-11 0 5.00477e-12)
(0.00379289 0 0.000497945)
(0.00363939 0 0.000496313)
(0.00323381 0 0.000462404)
(0.00267789 0 0.000400354)
(0.00210788 0 0.000327)
(0.00159259 0 0.000254279)
(0.00116001 0 0.000189264)
(0.0008163 0 0.000135316)
(0.000555621 0 9.31556e-05)
(0.00036604 0 6.18539e-05)
(0.000233472 0 3.9654e-05)
(0.00014419 0 2.45606e-05)
(8.62164e-05 0 1.47006e-05)
(4.99006e-05 0 8.50331e-06)
(2.79478e-05 0 4.75248e-06)
(1.51408e-05 0 2.56572e-06)
(7.93082e-06 0 1.33751e-06)
(4.01466e-06 0 6.72995e-07)
(1.963e-06 0 3.26723e-07)
(9.26625e-07 0 1.52979e-07)
(4.22057e-07 0 6.90577e-08)
(1.85391e-07 0 3.00457e-08)
(7.8492e-08 0 1.25958e-08)
(3.20153e-08 0 5.08691e-09)
(1.25738e-08 0 1.97882e-09)
(4.75262e-09 0 7.41376e-10)
(1.72766e-09 0 2.67436e-10)
(6.02401e-10 0 9.2632e-11)
(1.96821e-10 0 3.00109e-11)
(4.44176e-11 0 6.60501e-12)
(0.00391849 0 0.000604451)
(0.00374738 0 0.000592933)
(0.00331856 0 0.000545265)
(0.00274093 0 0.000469082)
(0.00215266 0 0.00038229)
(0.00162327 0 0.000297331)
(0.00118043 0 0.000221634)
(0.000829596 0 0.000158788)
(0.000564125 0 0.000109564)
(0.000371404 0 7.29163e-05)
(0.000236818 0 4.68514e-05)
(0.000146255 0 2.90826e-05)
(8.74781e-05 0 1.7446e-05)
(5.0662e-05 0 1.01146e-05)
(2.84005e-05 0 5.667e-06)
(1.5405e-05 0 3.06774e-06)
(8.08166e-06 0 1.60406e-06)
(4.09858e-06 0 8.09873e-07)
(2.00836e-06 0 3.94688e-07)
(9.50385e-07 0 1.85603e-07)
(4.34085e-07 0 8.41913e-08)
(1.91267e-07 0 3.68281e-08)
(8.12577e-08 0 1.55316e-08)
(3.32682e-08 0 6.31393e-09)
(1.31196e-08 0 2.47386e-09)
(4.98113e-09 0 9.34129e-10)
(1.8195e-09 0 3.39829e-10)
(6.37696e-10 0 1.18773e-10)
(2.09386e-10 0 3.88345e-11)
(4.73841e-11 0 8.6194e-12)
(0.00393277 0 0.000720831)
(0.00376152 0 0.000695401)
(0.00332922 0 0.000629125)
(0.00274781 0 0.000535292)
(0.00215598 0 0.000433402)
(0.00162421 0 0.000336025)
(0.00118025 0 0.000250296)
(0.000829134 0 0.000179483)
(0.000563792 0 0.000124083)
(0.000371311 0 8.27936e-05)
(0.000236926 0 5.33589e-05)
(0.000146478 0 3.32324e-05)
(8.7736e-05 0 2.00068e-05)
(5.09011e-05 0 1.16436e-05)
(2.85946e-05 0 6.55037e-06)
(1.55482e-05 0 3.56151e-06)
(8.17945e-06 0 1.87106e-06)
(4.16112e-06 0 9.49512e-07)
(2.04607e-06 0 4.65306e-07)
(9.71916e-07 0 2.20125e-07)
(4.45769e-07 0 1.005e-07)
(1.97304e-07 0 4.4271e-08)
(8.42334e-08 0 1.8812e-08)
(3.4669e-08 0 7.70976e-09)
(1.375e-08 0 3.04715e-09)
(5.25247e-09 0 1.16135e-09)
(1.93123e-09 0 4.26684e-10)
(6.81546e-10 0 1.50683e-10)
(2.25274e-10 0 4.97806e-11)
(5.11798e-11 0 1.11493e-11)
(0.00384444 0 0.000822506)
(0.00368317 0 0.00078385)
(0.00326162 0 0.000698431)
(0.00269309 0 0.000587868)
(0.0021131 0 0.000472893)
(0.001592 0 0.000365547)
(0.00115727 0 0.000272181)
(0.000813639 0 0.000195461)
(0.000553931 0 0.0001355)
(0.000365411 0 9.07384e-05)
(0.000233633 0 5.87268e-05)
(0.000144789 0 3.67472e-05)
(8.69633e-05 0 2.22347e-05)
(5.06102e-05 0 1.301e-05)
(2.853e-05 0 7.36082e-06)
(1.55725e-05 0 4.02635e-06)
(8.22658e-06 0 2.12881e-06)
(4.20418e-06 0 1.08765e-06)
(2.07743e-06 0 5.3684e-07)
(9.92059e-07 0 2.55909e-07)
(4.57603e-07 0 1.17787e-07)
(2.0378e-07 0 5.23337e-08)
(8.75668e-08 0 2.24413e-08)
(3.62925e-08 0 9.28619e-09)
(1.45011e-08 0 3.70774e-09)
(5.58335e-09 0 1.42834e-09)
(2.07023e-09 0 5.30717e-10)
(7.37055e-10 0 1.8962e-10)
(2.45688e-10 0 6.33662e-11)
(5.61117e-11 0 1.43306e-11)
(0.00365213 0 0.000901604)
(0.00352718 0 0.00084011)
(0.00312157 0 0.000736357)
(0.00257713 0 0.000615061)
(0.00202337 0 0.000493396)
(0.00152628 0 0.000381445)
(0.00111151 0 0.000284613)
(0.0007833 0 0.000205109)
(0.000534782 0 0.000142837)
(0.000353923 0 9.61609e-05)
(0.000227108 0 6.26036e-05)
(0.000141307 0 3.9422e-05)
(8.52413e-05 0 2.40137e-05)
(4.98411e-05 0 1.41503e-05)
(2.82384e-05 0 8.06526e-06)
(1.54968e-05 0 4.44583e-06)
(8.23402e-06 0 2.36963e-06)
(4.23395e-06 0 1.22094e-06)
(2.10588e-06 0 6.07979e-07)
(1.01266e-06 0 2.92515e-07)
(4.70558e-07 0 1.35947e-07)
(2.1119e-07 0 6.1018e-08)
(9.15036e-08 0 2.64445e-08)
(3.82569e-08 0 1.10648e-08)
(1.54278e-08 0 4.46936e-09)
(5.99842e-09 0 1.74264e-09)
(2.24714e-09 0 6.55657e-10)
(8.08643e-10 0 2.37284e-10)
(2.72328e-10 0 8.029e-11)
(6.26235e-11 0 1.83504e-11)
(2.17293e-11 0 7.13401e-12)
(9.45318e-11 0 3.02874e-11)
(2.96232e-10 0 9.22871e-11)
(8.76709e-10 0 2.66088e-10)
(2.49022e-09 0 7.3836e-10)
(6.79975e-09 0 1.97514e-09)
(1.7857e-08 0 5.09509e-09)
(4.51162e-08 0 1.2677e-08)
(1.09705e-07 0 3.04279e-08)
(2.56836e-07 0 7.04686e-08)
(5.79172e-07 0 1.57492e-07)
(1.25855e-06 0 3.39721e-07)
(2.63659e-06 0 7.07359e-07)
(5.32755e-06 0 1.42183e-06)
(1.03881e-05 0 2.75906e-06)
(1.95557e-05 0 5.1687e-06)
(3.55589e-05 0 9.34713e-06)
(6.24829e-05 0 1.63152e-05)
(0.000106145 0 2.74805e-05)
(0.000174399 0 4.46526e-05)
(0.000277231 0 6.99634e-05)
(0.000426466 0 0.00010564)
(0.000634868 0 0.00015359)
(0.000914464 0 0.000214797)
(0.00127381 0 0.000288585)
(0.00171397 0 0.000371912)
(0.00222324 0 0.000459099)
(0.00276514 0 0.000541836)
(0.00326563 0 0.000611232)
(0.00352627 0 0.000650158)
(2.14829e-11 0 7.4779e-12)
(9.29042e-11 0 3.15589e-11)
(2.89196e-10 0 9.54494e-11)
(8.50432e-10 0 2.73174e-10)
(2.40106e-09 0 7.52653e-10)
(6.51924e-09 0 1.99979e-09)
(1.70293e-08 0 5.12554e-09)
(4.2809e-08 0 1.26747e-08)
(1.036e-07 0 3.02449e-08)
(2.41449e-07 0 6.96538e-08)
(5.42126e-07 0 1.54838e-07)
(1.17317e-06 0 3.32274e-07)
(2.4479e-06 0 6.88402e-07)
(4.92704e-06 0 1.37701e-06)
(9.5705e-06 0 2.65939e-06)
(1.79487e-05 0 4.95865e-06)
(3.25144e-05 0 8.92561e-06)
(5.69164e-05 0 1.5507e-05)
(9.63103e-05 0 2.59965e-05)
(0.000157595 0 4.20403e-05)
(0.000249447 0 6.5557e-05)
(0.00038198 0 9.85254e-05)
(0.000565793 0 0.0001426)
(0.00081044 0 0.000198618)
(0.00112199 0 0.000266027)
(0.00149922 0 0.000342282)
(0.00193324 0 0.000423331)
(0.00239836 0 0.000503172)
(0.00284214 0 0.000575064)
(0.00315627 0 0.000632668)
(2.10603e-11 0 7.73172e-12)
(9.05247e-11 0 3.24358e-11)
(2.79721e-10 0 9.73327e-11)
(8.16607e-10 0 2.76341e-10)
(2.28955e-09 0 7.55471e-10)
(6.17531e-09 0 1.99225e-09)
(1.60288e-08 0 5.06941e-09)
(4.00499e-08 0 1.24487e-08)
(9.63586e-08 0 2.9506e-08)
(2.23311e-07 0 6.75097e-08)
(4.98669e-07 0 1.49123e-07)
(1.07339e-06 0 3.18038e-07)
(2.22801e-06 0 6.54932e-07)
(4.46131e-06 0 1.30229e-06)
(8.62127e-06 0 2.50035e-06)
(1.60851e-05 0 4.63505e-06)
(2.89868e-05 0 8.29509e-06)
(5.04731e-05 0 1.43293e-05)
(8.49315e-05 0 2.38825e-05)
(0.000138153 0 3.83938e-05)
(0.000217299 0 5.95177e-05)
(0.000330567 0 8.89447e-05)
(0.000485998 0 0.000128009)
(0.000690281 0 0.000177329)
(0.00094708 0 0.000236487)
(0.00125259 0 0.000303295)
(0.00159303 0 0.00037385)
(0.00194547 0 0.00044346)
(0.0022743 0 0.000507343)
(0.00250211 0 0.000560451)
(2.03955e-11 0 7.86604e-12)
(8.71231e-11 0 3.27995e-11)
(2.67065e-10 0 9.7608e-11)
(7.73405e-10 0 2.74748e-10)
(2.15155e-09 0 7.44793e-10)
(5.75955e-09 0 1.94801e-09)
(1.48414e-08 0 4.91732e-09)
(3.68231e-08 0 1.19816e-08)
(8.79917e-08 0 2.81838e-08)
(2.02566e-07 0 6.40075e-08)
(4.49397e-07 0 1.40362e-07)
(9.61119e-07 0 2.97219e-07)
(1.98224e-06 0 6.07755e-07)
(3.94384e-06 0 1.20005e-06)
(7.57218e-06 0 2.28805e-06)
(1.40352e-05 0 4.21204e-06)
(2.51241e-05 0 7.48589e-06)
(4.346e-05 0 1.28456e-05)
(7.26134e-05 0 2.12633e-05)
(0.000117205 0 3.39402e-05)
(0.00018279 0 5.22261e-05)
(0.000275701 0 7.75172e-05)
(0.000401759 0 0.000110857)
(0.000564875 0 0.000152574)
(0.000765886 0 0.000202105)
(0.000999825 0 0.000257583)
(0.00125332 0 0.000315727)
(0.00150395 0 0.000372261)
(0.00171893 0 0.000422361)
(0.001839 0 0.000459894)
(1.94348e-11 0 7.85227e-12)
(8.24937e-11 0 3.25399e-11)
(2.50724e-10 0 9.59905e-11)
(7.19766e-10 0 2.67729e-10)
(1.98528e-09 0 7.19212e-10)
(5.27049e-09 0 1.86445e-09)
(1.34718e-08 0 4.66559e-09)
(3.31625e-08 0 1.12716e-08)
(7.86351e-08 0 2.62924e-08)
(1.79658e-07 0 5.92217e-08)
(3.95599e-07 0 1.28815e-07)
(8.39784e-07 0 2.70584e-07)
(1.71914e-06 0 5.48893e-07)
(3.39478e-06 0 1.07523e-06)
(6.46827e-06 0 2.03378e-06)
(1.18943e-05 0 3.71374e-06)
(2.11109e-05 0 6.54451e-06)
(3.62218e-05 0 1.11423e-05)
(6.0036e-05 0 1.83068e-05)
(9.60512e-05 0 2.89923e-05)
(0.000148414 0 4.42662e-05)
(0.000221468 0 6.51457e-05)
(0.000319019 0 9.23671e-05)
(0.000443157 0 0.000126092)
(0.000593005 0 0.000165672)
(0.000763059 0 0.000209425)
(0.000941338 0 0.000254533)
(0.00110832 0 0.000297167)
(0.00123648 0 0.000332694)
(0.00128622 0 0.000355435)
(1.81598e-11 0 7.6734e-12)
(7.65822e-11 0 3.15972e-11)
(2.3065e-10 0 9.23509e-11)
(6.55934e-10 0 2.55075e-10)