/*--------------------------------*- C++ -*----------------------------------*\
| =========                 |                                                 |
| \\      /  F ield         | OpenFOAM: The Open Source CFD Toolbox           |
|  \\    /   O peration     | Version:  2012                                  |
|   \\  /    A nd           | Website:  www.openfoam.com                      |
|    \\/     M anipulation  |                                                 |
\*---------------------------------------------------------------------------*/
FoamFile
{
    version     2.0;
    format      ascii;
    class       volVectorField;
    location    "0.1";
    object      Force;
}
// * * * * * * * * * * * * * * * * * * * * * * * * * * * * * * * * * * * * * //

dimensions      [1 1 -2 0 0 0 0];


internalField   uniform (0 0 0);

boundaryField
{
    inlet
    {
        type            calculated;
        value           uniform (0 0 0);
    }
    outlet
    {
        type            calculated;
        value           uniform (0 0 0);
    }
    flap
    {
        type            calculated;
        value           nonuniform List<vector> 
33
(
(2.4059 -2.01712e-19 -0.01816)
(2.39729 1.63487e-18 -0.022199)
(2.38404 -1.6291e-18 -0.0209535)
(2.366 -1.72599e-18 -0.0141169)
(2.34282 -4.93706e-20 -0.00573995)
(2.31355 4.88518e-18 0.00133588)
(2.27507 -1.63241e-18 0.00269382)
(2.22157 7.40497e-24 -0.000795402)
(2.14939 -9.06837e-20 -0.00425639)
(2.05581 2.42144e-23 -0.00386738)
(1.93365 2.01862e-23 -0.000473192)
(1.76445 -1.86637e-20 0.00308283)
(1.51304 1.62754e-18 0.00679016)
(1.09688 1.62774e-18 0.00917016)
(0.271034 1.14794e-41 0.00958271)
(-0.00265256 -8.02926e-19 2.59803)
(-0.00496652 8.26773e-19 2.3367)
(-0.00501638 -8.01611e-19 1.83102)
(2.01413 -1.61805e-18 -0.0147395)
(2.03124 1.45686e-18 -0.0187552)
(2.05883 1.63538e-18 -0.0179636)
(2.09828 -1.63853e-18 -0.0122996)
(2.15162 3.27797e-18 -0.00504616)
(2.22157 2.87638e-21 0.00144568)
(2.31309 -1.59598e-23 0.00277942)
(2.43413 2.5621e-20 -0.00103692)
(2.59124 1.09544e-19 -0.00557246)
(2.78447 1.6344e-18 -0.00607109)
(2.99791 1.09838e-22 -0.00243118)
(3.19567 -1.63628e-18 0.00190703)
(3.32266 7.71124e-24 0.00767052)
(3.32312 -1.48837e-23 0.0117106)
(3.15148 3.26828e-18 0.0166072)
)
;
    }
    upperWall
    {
        type            calculated;
        value           uniform (0 0 0);
    }
    lowerWall
    {
        type            calculated;
        value           uniform (0 0 0);
    }
    frontAndBack
    {
        type            empty;
    }
}


// ************************************************************************* //
