/*--------------------------------*- C++ -*----------------------------------*\
| =========                 |                                                 |
| \\      /  F ield         | OpenFOAM: The Open Source CFD Toolbox           |
|  \\    /   O peration     | Version:  2012                                  |
|   \\  /    A nd           | Website:  www.openfoam.com                      |
|    \\/     M anipulation  |                                                 |
\*---------------------------------------------------------------------------*/
FoamFile
{
    version     2.0;
    format      ascii;
    class       surfaceScalarField;
    location    "0.1";
    object      meshPhi;
}
// * * * * * * * * * * * * * * * * * * * * * * * * * * * * * * * * * * * * * //

dimensions      [0 3 -1 0 0 0 0];
oriented        oriented;


internalField   nonuniform List<scalar> 
5457
(
3.4442e-10
4.81601e-12
1.06465e-09
1.96056e-11
2.90958e-09
5.55645e-11
7.57454e-09
1.47761e-10
1.88976e-08
3.7657e-10
4.52308e-08
9.2167e-10
1.03914e-07
2.16819e-09
2.29262e-07
4.90609e-09
4.85962e-07
1.06866e-08
9.90088e-07
2.24279e-08
1.93962e-06
4.53957e-08
3.65501e-06
8.87145e-08
6.62699e-06
1.67597e-07
1.15638e-05
3.06504e-07
1.94225e-05
5.43483e-07
3.14005e-05
9.36e-07
4.88576e-05
1.56871e-06
7.31367e-05
2.56382e-06
0.000105257
4.09491e-06
0.000145475
6.40527e-06
0.000192739
9.83092e-06
0.000244114
1.48266e-05
0.000294318
2.19865e-05
0.000335599
3.2039e-05
0.0003583
4.57712e-05
0.000352571
6.38022e-05
0.000311841
8.60755e-05
0.000238898
0.000110899
0.000156682
0.000133388
0.00015065
2.82474e-10
8.69663e-12
8.84299e-10
3.55604e-11
2.44509e-09
1.01329e-10
6.4364e-09
2.7087e-10
1.62345e-08
6.93844e-10
3.92775e-08
1.70675e-09
9.11987e-08
4.03481e-09
2.03316e-07
9.17345e-09
4.35397e-07
2.00737e-08
8.96007e-07
4.23127e-08
1.77263e-06
8.59932e-08
3.37259e-06
1.68678e-07
6.17274e-06
3.19712e-07
1.08711e-05
5.86321e-07
1.84256e-05
1.04191e-06
3.00581e-05
1.79703e-06
4.71924e-05
3.01375e-06
7.1295e-05
4.92424e-06
0.000103592
7.85503e-06
0.000144656
1.22582e-05
0.000193886
1.87502e-05
0.000248956
2.81535e-05
0.000305361
4.15284e-05
0.000356285
6.01561e-05
0.000393092
8.53921e-05
0.000406881
0.000118231
0.000391636
0.000158333
0.000349512
0.000202283
0.000298717
0.000241526
0.000268332
2.34027e-10
1.18257e-11
7.42666e-10
4.85783e-11
2.07916e-09
1.39195e-10
5.53834e-09
3.74086e-10
1.41321e-08
9.63268e-10
3.45816e-08
2.38173e-09
8.11938e-08
5.65892e-09
1.82995e-07
1.29288e-08
3.96082e-07
2.84233e-08
8.23659e-07
6.01748e-08
1.64628e-06
1.22786e-07
3.16384e-06
2.41704e-07
5.84838e-06
4.59498e-07
1.04015e-05
8.44625e-07
1.78037e-05
1.50316e-06
2.93333e-05
2.59391e-06
4.65268e-05
4.34746e-06
7.10482e-05
7.08968e-06
0.000104441
1.12708e-05
0.000147759
1.75009e-05
0.000201094
2.65913e-05
0.000263076
3.95965e-05
0.000330461
5.78409e-05
0.000397975
8.28849e-05
0.000458652
0.000116336
0.000504963
0.000159306
0.000531024
0.000211157
0.000536009
0.000267124
0.000528267
0.000315458
0.000346137
2.08904e-10
1.45301e-11
6.68281e-10
5.99168e-11
1.88586e-09
1.72494e-10
5.06327e-09
4.65727e-10
1.30218e-08
1.20475e-09
3.21148e-08
2.99234e-09
7.59904e-08
7.14145e-09
1.72596e-07
1.63865e-08
3.76455e-07
3.61734e-08
7.88858e-07
7.68767e-08
1.58881e-06
1.5741e-07
3.07686e-06
3.1079e-07
5.73162e-06
5.92246e-07
1.0274e-05
1.09041e-06
1.77274e-05
1.94195e-06
2.94533e-05
3.34974e-06
4.71343e-05
5.60449e-06
7.2674e-05
9.10946e-06
0.000107988
1.44081e-05
0.000154682
2.22137e-05
0.000213637
3.3439e-05
0.000284567
4.92193e-05
0.00036565
7.09129e-05
0.000453333
0.00010004
0.000542444
0.000138079
0.000626643
0.000185937
0.00069919
0.000242706
0.000753897
0.000303112
0.000786496
0.000354136
0.000382698
1.87993e-10
1.68555e-11
6.05869e-10
6.97368e-11
1.72354e-09
2.01615e-10
4.66507e-09
5.46672e-10
1.20948e-08
1.42019e-09
3.00684e-08
3.54256e-09
7.17162e-08
8.49034e-09
1.64179e-07
1.95619e-08
3.60916e-07
4.33532e-08
7.62216e-07
9.24745e-08
1.54712e-06
1.89976e-07
3.0195e-06
3.76155e-07
5.66884e-06
7.18402e-07
1.0242e-05
1.3246e-06
1.78154e-05
2.36019e-06
2.98475e-05
4.06839e-06
4.81853e-05
6.79257e-06
7.49939e-05
1.09988e-05
0.000112583
1.72966e-05
0.000163122
2.64536e-05
0.000228273
3.94015e-05
0.000308784
5.72223e-05
0.000404131
8.11021e-05
0.000512274
0.000112225
0.000629518
0.000151559
0.000750305
0.000199431
0.00086656
0.000254588
0.000966309
0.000312078
0.00103325
0.000359963
0.000389254
1.70475e-10
1.88397e-11
5.53275e-10
7.81715e-11
1.58647e-09
2.26861e-10
4.3288e-09
6.17547e-10
1.13134e-08
1.61075e-09
2.83505e-08
4.03416e-09
6.81547e-08
9.70759e-09
1.57251e-07
2.24552e-08
3.48374e-07
4.99558e-08
7.41402e-07
1.06942e-07
1.51639e-06
2.20417e-07
2.98207e-06
4.3766e-07
5.64118e-06
8.37744e-07
1.02699e-05
1.54696e-06
1.80018e-05
2.75793e-06
3.0397e-05
4.7512e-06
4.94702e-05
7.91686e-06
7.76446e-05
1.27725e-05
0.000117604
1.99728e-05
0.000172034
3.03042e-05
0.000243265
4.46578e-05
0.000332869
6.39687e-05
0.000441273
8.91073e-05
0.000567442
0.000120705
0.000708556
0.000158905
0.000859391
0.000203025
0.00101072
0.00025103
0.00114623
0.000298301
0.00124052
0.000335335
0.000355288
1.55664e-10
2.05167e-11
5.08542e-10
8.53407e-11
1.46938e-09
2.48491e-10
4.0406e-09
6.78817e-10
1.06422e-08
1.77704e-09
2.68743e-08
4.46734e-09
6.50989e-08
1.07907e-08
1.51334e-07
2.50546e-08
3.37767e-07
5.59431e-08
7.24128e-07
1.20177e-07
1.49186e-06
2.48491e-07
2.95499e-06
4.94799e-07
5.62993e-06
9.49294e-07
1.03223e-05
1.75578e-06
1.8222e-05
3.13259e-06
3.09873e-05
5.39496e-06
5.07915e-05
8.97502e-06
8.02948e-05
1.44336e-05
0.000122512
2.24563e-05
0.000180557
3.38254e-05
0.00025727
4.93568e-05
0.000354773
6.979e-05
0.000474007
9.5614e-05
0.000614306
0.000126817
0.000772959
0.000162568
0.000944446
0.000200904
0.00111849
0.000238567
0.00127592
0.000270901
0.00138541
0.00029156
0.00029628
1.43005e-10
2.19223e-11
4.70014e-10
9.13667e-11
1.36773e-09
2.66767e-10
3.78848e-09
7.3093e-10
1.00507e-08
1.91957e-09
2.55635e-08
4.84171e-09
6.23654e-08
1.1735e-08
1.46002e-07
2.7341e-08
3.28135e-07
6.12565e-08
7.08306e-07
1.32024e-07
1.46913e-06
2.73827e-07
2.92936e-06
5.4675e-07
5.61773e-06
1.05138e-06
1.03665e-05
1.94793e-06
1.84165e-05
3.4787e-06
3.15145e-05
5.99097e-06
5.19741e-05
9.95465e-06
8.26617e-05
1.5967e-05
0.000126869
2.47344e-05
0.000188044
3.70201e-05
0.000269386
5.35463e-05
0.000373322
7.48393e-05
0.000500928
0.000101003
0.000651363
0.000131411
0.000821315
0.000164333
0.00100424
0.000196627
0.00118854
0.000223832
0.00135312
0.000241186
0.00146355
0.000245774
0.00023983
1.32071e-10
2.30962e-11
4.36394e-10
9.63933e-11
1.27797e-09
2.82008e-10
3.56301e-09
7.74474e-10
9.51442e-09
2.03912e-09
2.43571e-08
5.1574e-09
5.98065e-08
1.25364e-08
1.40907e-07
2.92953e-08
3.18685e-07
6.58325e-08
6.92191e-07
1.42305e-07
1.44451e-06
2.9598e-07
2.89759e-06
5.92498e-07
5.58957e-06
1.14186e-06
1.03741e-05
2.11916e-06
1.85337e-05
3.78843e-06
3.18885e-05
6.52565e-06
5.28692e-05
1.08338e-05
8.45112e-05
1.73397e-05
0.000130328
2.6761e-05
0.000194024
3.98297e-05
0.000279041
5.71615e-05
0.000387952
7.90633e-05
0.000521756
0.000105273
0.000679146
0.000134637
0.000855818
0.000164755
0.00104371
0.000191743
0.00122954
0.000210555
0.00139085
0.000216763
0.001493
0.000210457
0.000195192
1.22566e-10
2.40874e-11
4.06782e-10
1.00599e-10
1.19764e-09
2.94636e-10
3.35768e-09
8.10314e-10
9.01662e-09
2.13718e-09
2.3213e-08
5.41621e-09
5.7318e-08
1.31944e-08
1.35799e-07
3.09056e-08
3.08837e-07
6.96202e-08
6.74479e-07
1.50861e-07
1.41514e-06
3.14521e-07
2.85374e-06
6.31008e-07
5.53356e-06
1.21843e-06
1.03221e-05
2.26474e-06
1.85315e-05
4.05264e-06
3.20359e-05
6.98248e-06
5.33542e-05
1.15842e-05
8.56514e-05
1.85065e-05
0.00013261
2.84678e-05
0.000198126
4.21569e-05
0.000285812
6.00709e-05
0.000398315
8.22918e-05
0.000536505
0.00010821
0.000698595
0.000136228
0.000879301
0.000163513
0.00106902
0.000185984
0.00125261
0.000198961
0.00140651
0.000199413
0.00149768
0.000190119
0.000178294
1.14318e-10
2.49553e-11
3.80662e-10
1.0421e-10
1.12538e-09
3.05221e-10
3.169e-09
8.39735e-10
8.54841e-09
2.21639e-09
2.21086e-08
5.62279e-09
5.48439e-08
1.37156e-08
1.30542e-07
3.21751e-08
2.98259e-07
7.26008e-08
6.54388e-07
1.57595e-07
1.37927e-06
3.29138e-07
2.79395e-06
6.61437e-07
5.44161e-06
1.27909e-06
1.01945e-05
2.38029e-06
1.8379e-05
4.26255e-06
3.19007e-05
7.34503e-06
5.33337e-05
1.21773e-05
8.5929e-05
1.94205e-05
0.000133485
2.97834e-05
0.000200032
4.39009e-05
0.000289304
6.2144e-05
0.000404005
8.43715e-05
0.000544913
0.000109649
0.00070991
0.000136005
0.000893015
0.000160334
0.00108349
0.00017869
0.0012648
0.000187344
0.00141293
0.000185205
0.00149768
0.000177046
0.000171781
1.07271e-10
2.57739e-11
3.57894e-10
1.07514e-10
1.06091e-09
3.14516e-10
2.99645e-09
8.64546e-10
8.10884e-09
2.28078e-09
2.10419e-08
5.78553e-09
5.2378e-08
1.41156e-08
1.25113e-07
3.31295e-08
2.86883e-07
7.48063e-08
6.31707e-07
1.6252e-07
1.3363e-06
3.39739e-07
2.71667e-06
6.83372e-07
5.31e-06
1.32261e-06
9.98279e-06
2.46281e-06
1.8059e-05
4.41161e-06
3.1449e-05
7.6004e-06
5.27454e-05
1.25899e-05
8.52361e-05
2.00435e-05
0.000132778
3.06511e-05
0.000199477
4.49871e-05
0.000289145
6.33002e-05
0.000404533
8.52472e-05
0.0005464
0.000109621
0.000712481
0.000134157
0.000896465
0.000155587
0.00108705
0.000170156
0.00126707
0.00017492
0.00141268
0.000170004
0.00149639
0.000160694
0.000154872
1.01466e-10
2.6631e-11
3.38659e-10
1.10862e-10
1.00491e-09
3.23475e-10
2.84224e-09
8.87149e-10
7.70431e-09
2.33609e-09
2.00299e-08
5.91731e-09
4.99625e-08
1.44216e-08
1.1961e-07
3.38222e-08
2.74909e-07
7.63335e-08
6.06822e-07
1.65793e-07
1.28688e-06
3.46537e-07
2.6229e-06
6.97015e-07
5.1399e-06
1.34894e-06
9.6878e-06
2.51147e-06
1.75698e-05
4.49713e-06
3.0673e-05
7.74224e-06
5.15676e-05
1.28093e-05
8.35249e-05
2.03543e-05
0.000130396
3.10401e-05
0.000196296
4.53812e-05
0.000285059
6.35201e-05
0.000399475
8.49578e-05
0.000540345
0.000108299
0.000705451
0.000131119
0.000888524
0.000150108
0.00107827
0.0001617
0.00125745
0.000163359
0.0014021
0.000155482
0.00148507
0.000142972
0.000130492
9.70305e-11
2.76315e-11
3.23421e-10
1.14672e-10
9.58875e-10
3.33258e-10
2.71087e-09
9.10545e-10
7.34764e-09
2.38972e-09
1.91069e-08
6.03554e-09
4.76831e-08
1.46728e-08
1.14234e-07
3.43366e-08
2.6279e-07
7.73502e-08
5.80689e-07
1.67732e-07
1.23293e-06
3.50101e-07
2.5162e-06
7.03303e-07
4.93759e-06
1.35952e-06
9.31979e-06
2.5282e-06
1.69271e-05
4.52137e-06
2.95946e-05
7.77264e-06
4.98277e-05
1.28368e-05
8.08233e-05
2.03527e-05
0.000126356
3.09503e-05
0.000190472
4.50893e-05
0.000276964
6.28331e-05
0.000388626
8.3588e-05
0.000526346
0.000105879
0.000688136
0.000127274
0.00086817
0.00014459
0.00105585
0.000154546
0.00123468
0.000154913
0.0013807
0.00014614
0.00146466
0.000132913
0.000120694
9.41508e-11
2.89071e-11
3.12826e-10
1.19474e-10
9.24826e-10
3.45335e-10
2.60834e-09
9.38555e-10
7.05563e-09
2.45118e-09
1.83174e-08
6.16302e-09
4.56525e-08
1.49212e-08
1.09256e-07
3.47872e-08
2.51141e-07
7.80964e-08
5.54631e-07
1.68817e-07
1.17716e-06
3.51341e-07
2.40186e-06
7.03881e-07
4.71286e-06
1.35714e-06
8.89595e-06
2.51752e-06
1.61595e-05
4.4912e-06
2.82585e-05
7.70138e-06
4.75912e-05
1.26856e-05
7.72207e-05
2.00556e-05
0.000120768
3.04028e-05
0.000182123
4.41385e-05
0.000264949
6.12753e-05
0.000371974
8.11884e-05
0.000504164
0.000102429
0.000659853
0.000122702
0.000833943
0.000139113
0.00101719
0.000148794
0.00119511
0.000149893
0.00134615
0.000142865
0.00143921
0.000131999
0.000123558
0.000136486
-5.486e-05
0.000224089
-4.03974e-05
0.000301228
-2.82557e-05
0.000343495
-1.83009e-05
0.000348953
-1.11339e-05
0.00032531
-6.21536e-06
0.000283185
-3.07733e-06
0.000232603
-1.23955e-06
0.000181434
-2.6564e-07
0.000134942
1.82147e-07
9.59495e-05
3.35948e-07
6.5337e-05
3.41991e-07
4.26574e-05
2.85818e-07
2.67223e-05
2.13555e-07
1.60695e-05
1.47234e-07
9.27904e-06
9.50405e-08
5.14562e-06
5.78745e-08
2.74046e-06
3.33885e-08
1.40167e-06
1.82962e-08
6.88442e-07
9.5391e-09
3.24658e-07
4.73742e-09
1.46977e-07
2.24306e-09
6.38637e-08
1.01321e-09
2.66282e-08
4.36886e-10
1.06514e-08
1.79911e-10
4.08591e-09
7.07861e-11
1.50133e-09
2.66107e-11
5.23791e-10
9.53007e-12
1.59254e-10
3.16031e-12
7.26026e-13
0.000274359
-7.38677e-05
0.000333587
-5.52625e-05
0.000380788
-3.81581e-05
0.000397625
-2.40173e-05
0.000383792
-1.37996e-05
0.000346516
-6.92406e-06
0.000295277
-2.68897e-06
0.000238915
-3.5119e-07
0.000184289
7.5203e-07
0.000135878
1.12728e-06
9.59342e-05
1.11942e-06
6.49366e-05
9.42584e-07
4.21744e-05
7.1847e-07
2.62954e-05
5.0878e-07
1.57444e-05
3.38833e-07
9.05449e-06
2.13554e-07
5.00181e-06
1.27819e-07
2.65407e-06
7.2798e-08
1.35266e-06
3.9502e-08
6.62078e-07
2.04389e-08
3.11174e-07
1.00901e-08
1.40408e-07
4.7549e-09
6.08117e-08
2.13981e-09
2.52749e-08
9.19938e-10
1.00783e-08
3.77956e-10
3.85416e-09
1.48442e-10
1.41204e-09
5.57308e-11
4.91632e-10
1.99451e-11
1.49843e-10
6.62037e-12
1.52581e-12
0.000504089
-5.11684e-05
0.000521191
-3.6561e-05
0.000521018
-2.27738e-05
0.000495991
-1.13735e-05
0.000449666
-3.57575e-06
0.000388963
1.06957e-06
0.000321655
3.37996e-06
0.000254705
4.15202e-06
0.000193357
4.02649e-06
0.00014084
3.45916e-06
9.84915e-05
2.74205e-06
6.61556e-05
2.04258e-06
4.26928e-05
1.44275e-06
2.64752e-05
9.70669e-07
1.57783e-05
6.23414e-07
9.0369e-06
3.82595e-07
4.97392e-06
2.24455e-07
2.6306e-06
1.25893e-07
1.33669e-06
6.75088e-08
6.52457e-07
3.46106e-08
3.05869e-07
1.69651e-08
1.37686e-07
7.95117e-09
5.94988e-08
3.56346e-09
2.46767e-08
1.52735e-09
9.81996e-09
6.2619e-10
3.74819e-09
2.45611e-10
1.37082e-09
9.21549e-11
4.76746e-10
3.29859e-11
1.45531e-10
1.09678e-11
2.53624e-12
0.000767914
2.5262e-06
0.000743245
7.5103e-06
0.000691704
1.37297e-05
0.000619
1.77793e-05
0.000534599
1.88998e-05
0.000445734
1.77806e-05
0.000358547
1.54472e-05
0.000278042
1.26736e-05
0.000207726
9.93299e-06
0.000149443
7.47959e-06
0.000103494
5.42554e-06
6.89769e-05
3.79447e-06
4.42338e-05
2.55814e-06
2.72896e-05
1.66123e-06
1.61944e-05
1.03805e-06
9.24239e-06
6.23475e-07
5.07196e-06
3.59582e-07
2.6758e-06
1.98968e-07
1.35683e-06
1.05555e-07
6.6114e-07
5.36603e-08
3.09491e-07
2.61305e-08
1.39149e-07
1.21858e-08
6.0072e-08
5.44141e-09
2.48945e-08
2.32645e-09
9.9003e-09
9.52375e-10
3.77699e-09
3.73316e-10
1.38086e-09
1.40094e-10
4.80168e-10
5.01944e-11
1.46586e-10
1.67258e-11
3.87962e-12
0.00102313
6.15504e-05
0.000962385
6.30266e-05
0.000863834
6.1201e-05
0.00074606
5.64034e-05
0.000624687
4.90848e-05
0.000507645
4.05554e-05
0.000399904
3.21256e-05
0.000304909
2.45791e-05
0.00022469
1.82365e-05
0.000159845
1.31408e-05
0.000109682
9.19539e-06
7.25445e-05
6.2425e-06
4.62257e-05
4.10529e-06
2.83659e-05
2.61095e-06
1.6757e-05
1.60318e-06
9.52675e-06
9.4888e-07
5.21096e-06
5.40605e-07
2.74152e-06
2.96129e-07
1.38689e-06
1.55812e-07
6.7444e-07
7.86894e-08
3.15188e-07
3.81226e-08
1.41512e-07
1.77101e-08
6.10209e-08
7.88697e-09
2.52636e-08
3.36645e-09
1.00394e-08
1.37713e-09
3.82774e-09
5.39882e-10
1.39879e-09
2.02787e-10
4.86263e-10
7.27812e-11
1.48421e-10
2.43175e-11
5.65775e-12
0.00124056
0.000125418
0.00115159
0.000118939
0.00101606
0.000109262
0.000862039
9.62053e-05
0.00070974
8.11211e-05
0.000568047
6.56282e-05
0.000441501
5.11792e-05
0.000332682
3.86338e-05
0.000242659
2.83025e-05
0.000171105
2.01422e-05
0.000116513
1.39239e-05
7.65545e-05
9.34151e-06
4.8503e-05
6.07456e-06
2.96169e-05
3.82298e-06
1.74216e-05
2.32494e-06
9.86828e-06
1.36428e-06
5.38075e-06
7.71435e-07
2.8232e-06
4.19861e-07
1.42492e-06
2.19739e-07
6.9158e-07
1.10501e-07
3.22668e-07
5.33609e-08
1.44672e-07
2.47329e-08
6.23141e-08
1.09996e-08
2.5776e-08
4.69277e-09
1.02358e-08
1.92034e-09
3.90062e-09
7.53683e-10
1.42492e-09
2.83622e-10
4.95241e-10
1.02058e-10
1.51134e-10
3.42153e-11
7.98738e-12
0.00139537
0.000174745
0.00129216
0.000162587
0.0011353
0.000148071
0.00095788
0.000129971
0.000783407
0.000109942
0.000622476
8.95666e-05
0.000480243
7.03826e-05
0.000359274
5.3464e-05
0.000260271
3.93253e-05
0.000182364
2.80344e-05
0.000123463
1.9373e-05
8.06991e-05
1.29721e-05
5.08914e-05
8.40978e-06
3.09474e-05
5.27307e-06
1.81384e-05
3.19407e-06
1.0242e-05
1.86692e-06
5.56929e-06
1.0518e-06
2.9153e-06
5.70624e-07
1.4685e-06
2.97858e-07
7.11559e-07
1.4949e-07
3.31542e-07
7.20963e-08
1.48491e-07
3.3398e-08
6.39055e-08
1.48556e-08
2.64181e-08
6.34345e-09
1.04866e-08
2.59994e-09
3.99534e-09
1.02274e-09
1.45947e-09
3.8602e-10
5.07292e-10
1.39413e-10
1.54819e-10
4.69387e-11
1.09995e-11
0.00148061
0.000193795
0.00137913
0.000185749
0.00121775
0.000171905
0.00103025
0.000153695
0.000842722
0.000132589
0.000668396
0.000110124
0.000514091
8.80654e-05
0.000383145
6.78871e-05
0.000276426
5.05128e-05
0.000192879
3.63152e-05
0.000130056
2.524e-05
8.46857e-05
1.69608e-05
5.32193e-05
1.10161e-05
3.22613e-05
6.9119e-06
1.88559e-05
4.18633e-06
1.06212e-05
2.44562e-06
5.76356e-06
1.37695e-06
3.01177e-06
7.46619e-07
1.51494e-06
3.89618e-07
7.33248e-07
1.95565e-07
3.41363e-07
9.43732e-08
1.52803e-07
4.37668e-08
6.57401e-08
1.9501e-08
2.7174e-08
8.34627e-09
1.0788e-08
3.43085e-09
4.1115e-09
1.35441e-09
1.50267e-09
5.13353e-10
5.22638e-10
1.86294e-10
1.59579e-10
6.30545e-11
1.48414e-11
0.00151202
0.000196605
0.00142208
0.00019098
0.00126774
0.000181689
0.00108012
0.000167307
0.000887026
0.000148389
0.000704559
0.000126348
0.000541733
0.000103241
0.000403156
8.10349e-05
0.000290242
6.11835e-05
0.000202018
4.44945e-05
0.000135866
3.11968e-05
8.82458e-05
2.11007e-05
5.53252e-05
1.37704e-05
3.34661e-05
8.66987e-06
1.95234e-05
5.2644e-06
1.09799e-05
3.08146e-06
5.95057e-06
1.73785e-06
3.10645e-06
9.43818e-07
1.56151e-06
4.9337e-07
7.55489e-07
2.48128e-07
3.51677e-07
1.20015e-07
1.57442e-07
5.58109e-08
6.77631e-08
2.49475e-08
2.80281e-08
1.07174e-08
1.11368e-08
4.42453e-09
4.2491e-09
1.75525e-09
1.55499e-09
6.68935e-10
5.41606e-10
2.44226e-10
1.65563e-10
8.31901e-11
1.96802e-11
0.00151417
0.000183043
0.00143731
0.000184535
0.00129372
0.000181853
0.00111083
0.000173209
0.000916995
0.000158253
0.000730474
0.000138262
0.000562303
0.000115492
0.000418441
9.23452e-05
0.000301001
7.07979e-05
0.000209248
5.21312e-05
0.000140528
3.69192e-05
9.11422e-05
2.5172e-05
5.70646e-05
1.65332e-05
3.44782e-05
1.04638e-05
2.00951e-05
6.38138e-06
1.12939e-05
3.74945e-06
6.11834e-06
2.12192e-06
3.19371e-06
1.15628e-06
1.60568e-06
6.06495e-07
7.77229e-07
3.0612e-07
3.62071e-07
1.4864e-07
1.62264e-07
6.94171e-08
6.99297e-08
3.11751e-08
2.89699e-08
1.34621e-08
1.15322e-08
5.58933e-09
4.40922e-09
2.23121e-09
1.61738e-09
8.56133e-10
5.64733e-10
3.1487e-10
1.72987e-10
1.08058e-10
2.57118e-11
0.00151008
0.00016836
0.00143998
0.000176319
0.00130407
0.000178844
0.00112621
0.000175028
0.000933841
0.000163931
0.000746073
0.000146473
0.00057524
0.000124796
0.000428347
0.000101503
0.000308133
7.89557e-05
0.000214133
5.88529e-05
0.000143738
4.21093e-05
9.31783e-05
2.89599e-05
5.8317e-05
1.91615e-05
3.52277e-05
1.22046e-05
2.05325e-05
7.48526e-06
1.15431e-05
4.42091e-06
6.25695e-06
2.51427e-06
3.26892e-06
1.37673e-06
1.64542e-06
7.25673e-07
7.97649e-07
3.68137e-07
3.72248e-07
1.79712e-07
1.67174e-07
8.44075e-08
7.22186e-08
3.81394e-08
2.99991e-08
1.6578e-08
1.19779e-08
6.93184e-09
4.59493e-09
2.78824e-09
1.69163e-09
1.07862e-09
5.92886e-10
4.00134e-10
1.82187e-10
1.38509e-10
3.31718e-11
0.00150484
0.000168687
0.0014355
0.000174681
0.001303
0.000177704
0.00112871
0.000175732
0.00093852
0.000167054
0.000751407
0.000151714
0.000580187
0.000131318
0.000432415
0.00010836
0.000311223
8.53796e-05
0.000216354
6.43653e-05
0.000145274
4.65139e-05
9.42098e-05
3.22717e-05
5.89947e-05
2.15215e-05
3.56643e-05
1.38063e-05
2.08084e-05
8.52416e-06
1.17135e-05
5.0665e-06
6.35969e-06
2.89929e-06
3.32908e-06
1.59736e-06
1.67953e-06
8.4726e-07
8.16314e-07
4.32606e-07
3.82087e-07
2.12614e-07
1.7216e-07
1.00573e-07
7.4645e-08
4.57861e-08
3.11317e-08
2.00608e-08
1.24848e-08
8.45933e-09
4.81226e-09
3.43331e-09
1.78075e-09
1.34084e-09
6.27431e-10
5.02364e-10
1.93666e-10
1.75604e-10
4.23594e-11
0.00148999
0.000175275
0.00142136
0.000176027
0.00129064
0.000177709
0.00111893
0.000175834
0.000931354
0.00016833
0.000746452
0.000154461
0.000576927
0.000135232
0.000430377
0.000112866
0.000310033
8.9898e-05
0.00021573
6.84601e-05
0.000145011
4.99397e-05
9.41582e-05
3.49527e-05
5.90513e-05
2.35013e-05
3.57624e-05
1.51943e-05
2.09095e-05
9.45189e-06
1.17991e-05
5.65943e-06
6.42398e-06
3.26242e-06
3.37331e-06
1.81079e-06
1.70783e-06
9.67761e-07
8.33304e-07
4.98009e-07
3.91712e-07
2.46754e-07
1.77323e-07
1.17717e-07
7.72753e-08
5.407e-08
3.24065e-08
2.39128e-08
1.30734e-08
1.01832e-08
5.07147e-09
4.17587e-09
1.88952e-09
1.64857e-09
6.70423e-10
6.24607e-10
2.08168e-10
2.20722e-10
5.36648e-11
0.00146547
0.000170107
0.00139686
0.000175058
0.00126623
0.000176477
0.00109643
0.000174678
0.000912128
0.000167812
0.000731107
0.000154915
0.000565401
0.000136666
0.000422194
0.000115033
0.000304536
9.24367e-05
0.000212247
7.10222e-05
0.000142943
5.22667e-05
9.30231e-05
3.68993e-05
5.84895e-05
2.5022e-05
3.55258e-05
1.63138e-05
2.08396e-05
1.02333e-05
1.18029e-05
6.17877e-06
6.45226e-06
3.59207e-06
3.40335e-06
2.01104e-06
1.73148e-06
1.08435e-06
8.49345e-07
5.63136e-07
4.01553e-07
2.81683e-07
1.82909e-07
1.35712e-07
8.02417e-08
6.29798e-08
3.38917e-08
2.81533e-08
1.37774e-08
1.21238e-08
5.38834e-09
5.02986e-09
2.025e-09
2.00986e-09
7.24852e-10
7.70978e-10
2.26767e-10
2.75711e-10
6.76105e-11
0.00143601
0.000170978
0.00136051
0.000171398
0.00122675
0.000173407
0.00105903
0.000171897
0.00087973
0.000165388
0.000704957
0.00015311
0.000545547
0.000135691
0.000407944
0.000114908
0.000294846
9.30031e-05
0.000206008
7.20278e-05
0.000139151
5.34557e-05
9.08629e-05
3.80701e-05
5.73492e-05
2.6048e-05
3.49809e-05
1.71382e-05
2.06157e-05
1.08506e-05
1.17357e-05
6.61381e-06
6.45109e-06
3.88241e-06
3.42314e-06
2.19531e-06
1.7528e-06
1.19589e-06
8.65763e-07
6.27663e-07
4.1235e-07
3.1741e-07
1.89313e-07
1.54665e-07
8.37507e-08
7.2621e-08
3.56905e-08
3.28595e-08
1.46466e-08
1.43292e-08
5.78599e-09
6.02252e-09
2.19748e-09
2.4389e-09
7.95034e-10
9.48336e-10
2.5101e-10
3.43549e-10
8.50241e-11
9.61034e-11
3.03136e-11
3.17795e-10
1.2469e-10
9.35149e-10
3.58086e-10
2.62632e-09
9.66934e-10
7.07712e-09
2.50983e-09
1.831e-08
6.27415e-09
4.54929e-08
1.51082e-08
1.08571e-07
3.50442e-08
2.48944e-07
7.82984e-08
5.48548e-07
1.68494e-07
1.16191e-06
3.49182e-07
2.36644e-06
6.96744e-07
4.63577e-06
1.33823e-06
8.73755e-06
2.47328e-06
1.58507e-05
4.3965e-06
2.76853e-05
7.5126e-06
4.65754e-05
1.23317e-05
7.54979e-05
1.94287e-05
0.000117968
2.93506e-05
0.00017776
4.24654e-05
0.000258425
5.87627e-05
0.000362615
7.76426e-05
0.0004913
9.77712e-05
0.000643006
0.0001171
0.000813122
0.000133132
0.000993606
0.000143484
0.00117224
0.000146689
0.00133144
0.000143086
0.00144206
0.000135893
0.000130326
0.00148849
9.70482e-11
3.14925e-11
3.19083e-10
1.28886e-10
9.33406e-10
3.67547e-10
2.60689e-09
9.854e-10
6.98855e-09
2.54019e-09
1.79943e-08
6.30844e-09
4.45098e-08
1.5096e-08
1.05786e-07
3.48082e-08
2.41626e-07
7.73318e-08
5.30514e-07
1.65518e-07
1.11994e-06
3.41256e-07
2.27382e-06
6.77588e-07
4.4412e-06
1.29533e-06
8.34761e-06
2.38321e-06
1.51037e-05
4.21806e-06
2.63156e-05
7.17777e-06
4.41684e-05
1.17355e-05
7.14372e-05
1.84197e-05
0.000111384
2.77277e-05
0.000167494
3.99893e-05
0.000243031
5.51935e-05
0.000340376
7.28093e-05
0.000460314
9.16737e-05
0.000601424
0.000110049
0.000759388
0.000125876
0.000926945
0.000137242
0.00109377
0.000143004
0.00124587
0.000143375
0.00136104
0.000140453
0.000138058
0.00141252
9.73366e-11
3.22482e-11
3.18021e-10
1.31286e-10
9.24063e-10
3.71615e-10
2.56418e-09
9.88657e-10
6.83223e-09
2.52955e-09
1.74909e-08
6.23682e-09
4.30302e-08
1.48215e-08
1.01746e-07
3.39485e-08
2.31273e-07
7.49413e-08
5.05451e-07
1.59421e-07
1.06237e-06
3.26754e-07
2.14793e-06
6.45133e-07
4.17857e-06
1.2266e-06
7.82387e-06
2.24503e-06
1.41038e-05
3.95374e-06
2.44863e-05
6.6962e-06
4.09595e-05
1.09002e-05
6.60291e-05
1.70404e-05
0.000102612
2.55586e-05
0.000153792
3.67457e-05
0.000222435
5.06029e-05
0.000310547
6.66965e-05
0.000418572
8.40599e-05
0.000544968
0.000101263
0.000685566
0.000116656
0.000833302
0.000128724
0.000978622
0.000136551
0.00110946
0.000140194
0.00120857
0.000140941
0.000141014
0.00124929
9.64781e-11
3.24634e-11
3.13101e-10
1.31436e-10
9.03076e-10
3.6913e-10
2.48799e-09
9.74008e-10
6.58379e-09
2.47205e-09
1.67447e-08
6.04755e-09
4.0938e-08
1.42633e-08
9.62231e-08
3.2432e-08
2.17472e-07
7.10894e-08
4.7269e-07
1.50198e-07
9.88285e-07
3.05829e-07
1.98799e-06
5.99998e-07
3.84836e-06
1.13383e-06
7.17097e-06
2.06307e-06
1.2866e-05
3.61282e-06
2.22333e-05
6.08572e-06
3.70265e-05
9.85732e-06
5.94348e-05
1.53436e-05
9.19617e-05
2.29279e-05
0.00013721
3.28609e-05
0.000197561
4.51534e-05
0.000274583
5.94639e-05
0.000368358
7.50233e-05
0.000477116
9.06881e-05
0.000596814
0.000105143
0.000720726
0.000117177
0.000839788
0.000125999
0.00094288
0.000131483
0.001015
0.000134293
0.000135464
0.00103727
9.41536e-11
3.20447e-11
3.03393e-10
1.29002e-10
8.68132e-10
3.59306e-10
2.37303e-09
9.39838e-10
6.23227e-09
2.36484e-09
1.57359e-08
5.73682e-09
3.82037e-08
1.34202e-08
8.91941e-08
3.02733e-08
2.00282e-07
6.58477e-08
4.32602e-07
1.38086e-07
8.98978e-07
2.79138e-07
1.79766e-06
5.43813e-07
3.4598e-06
1.02075e-06
6.41032e-06
1.84531e-06
1.14366e-05
3.21157e-06
1.96519e-05
5.37822e-06
3.25479e-05
8.66375e-06
5.19684e-05
1.34192e-05
7.9979e-05
1.99672e-05
0.000118679
2.85204e-05
0.000169905
3.9093e-05
0.00023475
5.14155e-05
0.000312999
6.48885e-05
0.000402744
7.86215e-05
0.00050011
9.15709e-05
0.000599007
0.000102744
0.000691216
0.000111417
0.000766633
0.000117301
0.000812783
0.000120581
0.000121612
0.000819107
9.02143e-11
3.09783e-11
2.88528e-10
1.23966e-10
8.18585e-10
3.4228e-10
2.21872e-09
8.87032e-10
5.77927e-09
2.21149e-09
1.44765e-08
5.31655e-09
3.48765e-08
1.23277e-08
8.0821e-08
2.75702e-08
1.80171e-07
5.94661e-08
3.86431e-07
1.23687e-07
7.97536e-07
2.4805e-07
1.58413e-06
4.79539e-07
3.0288e-06
8.93436e-07
5.57545e-06
1.60368e-06
9.88353e-06
2.77221e-06
1.68759e-05
4.61326e-06
2.77704e-05
7.38727e-06
4.40521e-05
1.13776e-05
6.7359e-05
1.68447e-05
9.93072e-05
2.39619e-05
0.000141215
3.27427e-05
0.000193727
4.29768e-05
0.000256393
5.41986e-05
0.000327316
6.57148e-05
0.000402932
7.6699e-05
0.000477905
8.63331e-05
0.000545221
9.39565e-05
0.000596486
9.91734e-05
0.000622301
0.000101876
0.000102131
0.000618046
8.4685e-11
2.92747e-11
2.68717e-10
1.16424e-10
7.55503e-10
3.18534e-10
2.02925e-09
8.17464e-10
5.23912e-09
2.01826e-09
1.30108e-08
4.80562e-09
3.10836e-08
1.10384e-08
7.14454e-08
2.44595e-08
1.58006e-07
5.22812e-08
3.36261e-07
1.07785e-07
6.88714e-07
2.14302e-07
1.35776e-06
4.10832e-07
2.57691e-06
7.59231e-07
4.70919e-06
1.35216e-06
8.28804e-06
2.31999e-06
1.40515e-05
3.83342e-06
2.29549e-05
6.0976e-06
3.61426e-05
9.33319e-06
5.4855e-05
1.37411e-05
8.02686e-05
1.9453e-05
0.000113265
2.64758e-05
0.000154138
3.46442e-05
0.000202276
4.35972e-05
0.000255899
5.27974e-05
0.000311904
6.15949e-05
0.000365856
6.93231e-05
0.000412149
7.54014e-05
0.0004444
7.9411e-05
0.000456105
8.11206e-05
8.05354e-05
0.000446254
7.769e-11
2.69868e-11
2.44504e-10
1.06639e-10
6.80909e-10
2.89002e-10
1.81141e-09
7.34127e-10
4.63284e-09
1.79401e-09
1.13997e-08
4.22864e-09
2.69906e-08
9.61672e-09
6.14936e-08
2.11013e-08
1.34829e-07
4.4671e-08
2.84518e-07
9.12302e-08
5.77906e-07
1.79719e-07
1.13e-06
3.41446e-07
2.12735e-06
6.25502e-07
3.85657e-06
1.1046e-06
6.73355e-06
1.87987e-06
1.13254e-05
3.08215e-06
1.83535e-05
4.86669e-06
2.86638e-05
7.39803e-06
4.31479e-05
1.08233e-05
6.26117e-05
1.52354e-05
8.75924e-05
2.06324e-05
0.000118137
2.68823e-05
0.000153577
3.37074e-05
0.000192346
4.0696e-05
0.000231899
4.73459e-05
0.000268764
5.31304e-05
0.000298748
5.75698e-05
0.000317353
6.02897e-05
0.000320393
6.10507e-05
5.9891e-05
0.000308736
6.9521e-11
2.42485e-11
2.16946e-10
9.51868e-11
5.98164e-10
2.55431e-10
1.57529e-09
6.4194e-10
3.98902e-09
1.55195e-09
9.72015e-09
3.61929e-09
2.27947e-08
8.14478e-09
5.14484e-08
1.76871e-08
1.11768e-07
3.70628e-08
2.33722e-07
7.4936e-08
4.70501e-07
1.46174e-07
9.11893e-07
2.75049e-07
1.70177e-06
4.99155e-07
3.05836e-06
8.73471e-07
5.29384e-06
1.47346e-06
8.82707e-06
2.39542e-06
1.41807e-05
3.7519e-06
2.19523e-05
5.65998e-06
3.27504e-05
8.2216e-06
4.70919e-05
1.1497e-05
6.52645e-05
1.5476e-05
8.71688e-05
2.00534e-05
0.000112166
2.50184e-05
0.000138969
3.00626e-05
0.000165614
3.48098e-05
0.000189541
3.88622e-05
0.000207813
4.18509e-05
0.000217465
4.34815e-05
0.000215977
4.35627e-05
4.21786e-05
0.000204955
6.06117e-11
2.12167e-11
1.87487e-10
8.27147e-11
5.11576e-10
2.19697e-10
1.33304e-09
5.46006e-10
3.34036e-09
1.30523e-09
8.05603e-09
3.01007e-09
1.87016e-08
6.6993e-09
4.17915e-08
1.439e-08
8.99019e-08
2.98303e-08
1.86187e-07
5.96756e-08
3.71243e-07
1.15196e-07
7.12745e-07
2.14548e-07
1.3177e-06
3.85473e-07
2.34615e-06
6.67975e-07
4.02345e-06
1.11616e-06
6.64662e-06
1.798e-06
1.05783e-05
2.79147e-06
1.62215e-05
4.17588e-06
2.39696e-05
6.01771e-06
3.41305e-05
8.35224e-06
4.68287e-05
1.11639e-05
6.18995e-05
1.43704e-05
7.87932e-05
1.78153e-05
9.6518e-05
2.12753e-05
0.000113646
2.448e-05
0.000128403
2.71445e-05
0.000138852
2.90052e-05
0.000143156
2.98539e-05
0.000139895
2.9561e-05
2.82359e-05
0.000130749
5.14236e-11
1.80579e-11
1.5762e-10
6.99085e-11
4.25433e-10
1.83719e-10
1.09632e-09
4.51317e-10
2.71711e-09
1.06627e-09
6.48222e-09
2.4304e-09
1.48882e-08
5.34683e-09
3.29214e-08
1.13539e-08
7.00891e-08
2.32713e-08
1.43674e-07
4.60362e-08
2.83586e-07
8.78921e-08
5.39016e-07
1.6193e-07
9.86641e-07
2.87858e-07
1.73938e-06
4.93658e-07
2.95356e-06
8.16568e-07
4.83118e-06
1.30252e-06
7.61298e-06
2.00309e-06
1.1558e-05
2.96925e-06
1.69064e-05
4.24161e-06
2.38262e-05
5.83817e-06
3.23476e-05
7.74158e-06
4.22963e-05
9.88918e-06
5.3238e-05
1.21693e-05
6.44553e-05
1.44262e-05
7.4969e-05
1.64749e-05
8.36181e-05
1.81227e-05
8.91968e-05
1.91943e-05
9.06329e-05
1.95555e-05
8.71796e-05
1.91298e-05
1.80263e-05
8.02682e-05
4.24073e-11
1.49393e-11
1.28769e-10
5.74192e-11
3.43655e-10
1.49249e-10
8.75374e-10
3.62241e-10
2.14467e-09
8.45412e-10
5.05869e-09
1.90363e-09
1.14891e-08
4.13759e-09
2.51257e-08
8.68142e-09
5.29109e-08
1.75838e-08
1.07296e-07
3.43792e-08
2.09533e-07
6.4881e-08
3.9407e-07