/*--------------------------------*- C++ -*----------------------------------*\
| =========                 |                                                 |
| \\      /  F ield         | OpenFOAM: The Open Source CFD Toolbox           |
|  \\    /   O peration     | Version:  2012                                  |
|   \\  /    A nd           | Website:  www.openfoam.com                      |
|    \\/     M anipulation  |                                                 |
\*---------------------------------------------------------------------------*/
FoamFile
{
    version     2.0;
    format      ascii;
    class       volScalarField;
    location    "0.1";
    object      p;
}
// * * * * * * * * * * * * * * * * * * * * * * * * * * * * * * * * * * * * * //

dimensions      [0 2 -2 0 0 0 0];


internalField   nonuniform List<scalar> 
2790
(
72.0709
71.9614
72.1901
72.7029
73.4068
74.2697
75.2881
76.4606
77.783
79.2507
80.8603
82.6087
84.4925
86.507
88.6454
90.8981
93.2515
95.6876
98.1831
100.709
103.23
105.705
108.089
110.332
112.383
114.194
115.718
116.921
117.776
118.298
71.8732
71.8743
72.1284
72.6391
73.3402
74.2013
75.2171
76.3855
77.7028
79.1646
80.7673
82.5079
84.3834
86.3891
88.5186
90.7627
93.1082
95.5378
98.0287
100.553
103.075
105.556
107.95
110.208
112.277
114.107
115.651
116.87
117.734
118.269
71.6845
71.7557
72.0293
72.5305
73.2202
74.0709
75.0749
76.2295
77.5308
78.9746
80.5572
82.2757
84.1268
86.1064
88.2081
90.4231
92.7392
95.1396
97.603
100.102
102.604
105.071
107.457
109.714
111.792
113.636
115.199
116.438
117.315
117.864
71.4745
71.5768
71.8637
72.3576
73.0347
73.8717
74.8595
75.9944
77.2724
78.6894
80.2417
81.9263
83.74
85.6786
87.7363
89.9048
92.1724
94.5238
96.9387
99.3918
101.852
104.283
106.643
108.883
110.954
112.802
114.375
115.627
116.513
117.072
71.2334
71.3501
71.6461
72.1338
72.796
73.6142
74.5794
75.687
76.9331
78.3134
79.8243
81.4626
83.2251
85.1077
87.1049
89.2087
91.4086
93.69
96.0344
98.4185
100.814
103.186
105.497
107.7
109.748
111.586
113.161
114.425
115.322
115.898
70.9569
71.0796
71.3788
71.8577
72.5018
73.2964
74.233
75.3067
76.513
77.8477
79.307
80.8874
82.5856
84.3976
86.3179
88.3391
90.451
92.6405
94.8905
97.1799
99.4829
101.769
104.002
106.141
108.141
109.95
111.515
112.785
113.695
114.297
70.6433
70.7673
71.0642
71.5314
72.1544
72.9211
73.8237
74.8571
76.0162
77.2966
78.6943
80.2055
81.8267
83.5537
85.3808
87.3009
89.3044
91.3788
93.5086
95.6745
97.8536
100.019
102.138
104.177
106.093
107.842
109.374
110.638
111.557
112.192
70.292
70.4145
70.705
71.1571
71.7559
72.4906
73.3542
74.3411
75.446
76.664
77.9907
79.422
80.954
82.5819
84.3
86.1008
87.9749
89.9102
91.892
93.9026
95.9212
97.924
99.8842
101.772
103.554
105.195
106.652
107.882
108.799
109.471
69.9036
70.0225
70.3034
70.7373
71.3087
72.0077
72.8276
73.7624
74.8065
75.9546
77.2016
78.543
79.9743
81.4899
83.0836
84.7472
86.4709
88.2424
90.0469
91.8674
93.684
95.4754
97.2185
98.8894
100.465
101.92
103.23
104.37
105.258
105.985
69.479
69.5931
69.8616
70.2744
70.8156
71.4754
72.2472
73.1249
74.1023
75.1735
76.333
77.5755
78.8953
80.2864
81.7412
83.2505
84.8034
86.3865
87.9837
89.5769
91.1458
92.6688
94.124
95.4916
96.7559
97.9084
98.9475
99.888
100.676
101.479
69.0199
69.128
69.3821
69.7713
70.2794
70.8968
71.6168
72.4329
73.3384
74.3268
75.3917
76.527
77.7261
78.9814
80.2842
81.6235
82.9865
84.3573
85.7176
87.0459
88.3184
89.5096
90.594
91.5493
92.362
93.0347
93.5948
94.1186
94.6307
95.4711
68.5278
68.6293
68.8673
69.2307
69.7034
70.2756
70.9405
71.6911
72.5202
73.4205
74.3849
75.4061
76.4763
77.5864
78.7256
79.8811
81.037
82.1741
83.2698
84.297
85.2247
86.018
86.6397
87.0538
87.2325
87.1714
86.9123
86.6049
86.4254
87.1357
68.005
68.0991
68.3196
68.6554
69.0906
69.6153
70.2223
70.9043
71.6533
72.4613
73.3203
74.2218
75.1565
76.1136
77.0801
78.0404
78.975
79.8605
80.668
81.3625
81.9015
82.2343
82.3013
82.0347
81.3636
80.2303
78.627
76.719
74.8725
74.7961
67.4535
67.5398
67.7418
68.0485
68.4445
68.9198
69.4668
70.0776
70.7437
71.4562
72.2061
72.9838
73.7782
74.5766
75.3636
76.1203
76.8235
77.4442
77.9462
78.2842
78.4009
78.2233
77.6578
76.5833
74.8438
72.2462
68.5743
63.7318
57.9294
54.4915
66.8758
66.9539
67.1365
67.413
67.7686
68.193
68.6783
69.2161
69.7972
70.4121
71.0505
71.7015
72.3526
72.9889
73.5925
74.1411
74.6073
74.9561
75.1436
75.1128
74.7896
74.075
72.8333
70.8724
67.9106
63.5185
57.0091
47.3115
32.533
14.5968
-102.318
-102.297
-102.034
-101.369
-100.081
-97.909
-94.6218
-90.0732
-84.2477
-77.2863
-69.4924
-61.2727
-52.9586
-44.6989
-36.8322
-29.7831
-23.6767
-18.53
-14.2939
-10.8764
-8.1644
-6.04059
-4.39388
-3.1255
-2.15151
-1.40295
-0.82477
-0.374171
-0.0192087
0.262929
-102.754
-102.795
-102.612
-102.04
-100.841
-98.7375
-95.4734
-90.8982
-85.0096
-77.9636
-70.0746
-61.762
-53.3672
-45.0293
-37.0932
-29.9951
-23.8506
-18.6736
-14.413
-10.9754
-8.24686
-6.1091
-4.45056
-3.17211
-2.18951
-1.4336
-0.849126
-0.392949
-0.0321466
0.264075
-103.785
-103.946
-103.909
-103.504
-102.464
-100.473
-97.235
-92.5977
-86.568
-79.321
-71.2039
-62.6685
-54.0859
-45.5691
-37.4684
-30.2597
-24.0393
-18.811
-14.5166
-11.0567
-8.313
-6.16436
-4.49735
-3.21175
-2.22279
-1.46106
-0.871161
-0.409743
-0.0433333
0.262632
-105.485
-105.826
-106.023
-105.892
-105.113
-103.308
-100.126
-95.3961
-89.1293
-81.5335
-73.0199
-64.0972
-55.1786
-46.3613
-38.0021
-30.6206
-24.2857
-18.9838
-14.6436
-11.1557
-8.39418
-6.23334
-4.55684
-3.26299
-2.26633
-1.49723
-0.900248
-0.432
-0.0588296
0.256155
-107.95
-108.553
-109.1
-109.393
-109.026
-107.516
-104.433
-99.5741
-92.9397
-84.7986
-75.6727
-66.1594
-56.7104
-47.4386
-38.7197
-31.0938
-24.5984
-19.1953
-14.7937
-11.2693
-8.48585
-6.31068
-4.6235
-3.32048
-2.31524
-1.53784
-0.932853
-0.456931
-0.0764951
0.246994
-111.315
-112.299
-113.364
-114.289
-114.541
-113.477
-110.543
-105.481
-98.2764
-89.3193
-79.3026
-68.95
-58.7288
-48.8156
-39.6371
-31.6923
-24.9879
-19.4543
-14.9744
-11.4041
-8.59351
-6.401
-4.70111
-3.38732
-2.37203
-1.58497
-0.970685
-0.485979
-0.0974859
0.234554
-115.773
-117.289
-119.09
-120.921
-122.05
-121.608
-118.854
-113.439
-105.357
-95.2285
-83.9824
-72.4974
-61.2369
-50.4793
-40.7485
-32.415
-25.4557
-19.7636
-15.1891
-11.5634
-8.71985
-6.50624
-4.79094
-3.46419
-2.43701
-1.63864
-1.01367
-0.519035
-0.121662
0.219028
-121.539
-123.751
-126.54
-129.597
-131.903
-132.253
-129.638
-123.618
-114.236
-102.511
-89.6639
-76.7145
-64.1599
-52.3908
-42.023
-33.2433
-25.9922
-20.1198
-15.4376
-11.7486
-8.86679
-6.62821
-4.8944
-3.55214
-2.51088
-1.69937
-1.06217
-0.556389
-0.149244
0.200257
-128.756
-131.79
-135.814
-140.438
-144.231
-145.516
-142.882
-135.874
-124.697
-110.939
-96.1422
-81.3914
-67.3193
-54.4853
-43.4032
-34.1386
-26.5756
-20.5118
-15.7154
-11.9583
-9.03444
-6.76745
-5.01206
-3.65156
-2.59388
-1.76726
-1.11624
-0.59808
-0.180251
0.178228
-137.259
-141.158
-146.635
-153.163
-158.748
-161.059
-158.154
-149.628
-136.189
-120.049
-103.001
-86.2294
-70.5316
-56.6205
-44.7958
-35.0422
-27.1715
-20.9209
-16.0129
-12.1881
-9.22075
-6.92307
-5.14346
-3.76215
-2.68575
-1.8421
-1.17572
-0.644002
-0.214614
0.152995
-146.214
-150.984
-158.113
-166.868
-174.494
-177.759
-174.306
-163.846
-147.844
-129.184
-109.682
-90.8006
-73.5665
-58.6002
-46.0769
-35.8792
-27.7361
-21.3222
-16.3161
-12.4301
-9.42127
-7.09234
-5.28682
-3.88265
-2.78559
-1.92323
-1.24014
-0.69383
-0.252109
0.124746
-153.969
-159.631
-168.587
-179.81
-189.473
-193.315
-189.375
-177.072
-158.677
-137.365
-115.452
-94.6386
-76.054
-60.195
-47.1073
-36.5661
-28.2199
-21.6864
-16.6075
-12.6734
-9.62898
-7.27056
-5.43885
-4.01073
-2.8917
-2.00945
-1.30867
-0.747001
-0.292355
0.093797
-158.144
-164.881
-175.778
-189.428
-201.262
-205.854
-201.746
-187.687
-167.06
-143.333
-119.411
-97.16
-77.625
-61.1796
-47.7512
-37.0215
-28.5731
-21.9823
-16.8669
-12.9045
-9.83441
-7.45095
-5.59464
-4.14281
-3.00151
-2.09892
-1.38002
-0.802638
-0.334762
0.0606191
-156.704
-164.999
-178.65
-194.7
-208.207
-213.761
-209.122
-193.359
-170.946
-145.789
-120.804
-97.877
-77.975
-61.3691
-47.8966
-37.1756
-28.7508
-22.1797
-17.0731
-13.1081
-10.0264
-7.62531
-5.7482
-4.27452
-3.11187
-2.18937
-1.45258
-0.859611
-0.378523
0.0258833
-147.812
-159.465
-176.731
-194.633
-209.111
-214.568
-208.894
-192.384
-169.486
-144.136
-119.203
-96.5079
-76.9271
-60.6525
-47.471
-36.9781
-28.716
-22.2503
-17.2044
-13.2678
-10.1928
-7.78496
-5.89346
-4.40179
-3.22012
-2.27917
-1.52542
-0.91743
-0.423409
-0.0101699
66.2628
66.3323
66.4946
66.7396
67.053
67.4247
67.8462
68.3086
68.8021
69.3163
69.8401
70.361
70.865
71.3352
71.7509
72.0868
72.3108
72.3825
72.2499
71.8447
71.0763
69.8198
67.8976
65.0451
60.845
54.5884
44.9312
28.9461
-2.62202
-93.8693
65.6076
65.6682
65.8091
66.0211
66.2906
66.6074
66.9627
67.3472
67.7502
68.1607
68.5665
68.954
69.3074
69.6079
69.8325
69.9526
69.9324
69.7263
69.2754
68.5023
67.3032
65.5343
62.9896
59.3606
54.1595
46.5641
35.0806
17.0514
-9.97486
-49.9288
64.9155
64.9667
65.0856
65.2635
65.4878
65.7483
66.036
66.3408
66.6518
66.957
67.2435
67.4964
67.6986
67.8295
67.8641
67.7713
67.5121
67.0372
66.2833
65.1674
63.5796
61.3697
58.3286
54.1569
48.418
40.482
29.4993
14.4893
-4.16819
-25.9393
64.1879
64.2296
64.326
64.4691
64.6473
64.8507
65.0698
65.2943
65.5127
65.7125
65.8798
65.9989
66.0517
66.0162
65.8657
65.5675
65.0809
64.3545
63.3235
61.9045
59.9891
57.4347
54.0523
49.5915
43.7263
36.0555
26.1399
13.4706
-2.33841
-21.8879
63.4268
63.4587
63.5322
63.6402
63.772
63.918
64.0684
64.2127
64.339
64.4343
64.4843
64.4726
64.3801
64.1841
63.8571
63.3656
62.6686
61.715
60.4413
58.7683
56.5959
53.7983
50.2178
45.66
39.8912
32.6414
23.6146
12.4545
-1.20615
-17.1468
62.6343
62.6565
62.7071
62.7798
62.8653
62.9541
63.0365
63.1016
63.1373
63.1306
63.0665
62.9285
62.6971
62.3493
61.8575
61.1888
60.3029
59.1511
57.6742
55.8002
53.4419
50.494
46.8318
42.3102
36.7657
30.0217
21.9037
12.2614
1.02071
-11.3691
61.8133
61.8258
61.8536
61.8914
61.931
61.9635
61.9791
61.9668
61.9147
61.8094
61.6361
61.3782
61.0162
60.5277
59.8856
59.0584
58.0082
56.6902
55.0513
53.0292
50.551
47.5331
43.8817
39.4945
34.2664
28.0977
20.9116
12.6772
3.42019
-6.52043
60.9668
60.9697
60.9752
60.9787
60.9734
60.951
60.9018
60.8149
60.6784
60.4792
60.2029
59.8329
59.3506
58.7342
57.9583
56.9934
55.8051
54.3537
52.5935
50.4725
47.9328
44.9114
41.3415
37.1566
32.2961
26.713
20.3859
13.3319
5.60659
-2.52556
60.0983
60.092
60.0756
60.0458
59.9971
59.9217
59.8103
59.6522
59.4359
59.1487
58.7766
58.3038
57.7125
56.9825
56.0904
55.0096
53.7099
52.1571
50.3134
48.1376
45.5856
42.6124
39.174
35.231
30.7538
25.7281
20.1627
14.0971
7.60179
0.886125
59.2118
59.1965
59.1591
59.0973
59.007
58.8812
58.7108
58.4857
58.1949
57.8262
57.3664
56.8009
56.1131
55.2846
54.2945
53.1195
51.734
50.1098
48.2168
46.0236
43.4987
40.6119
37.3371
33.6545
29.5553
25.045
20.1484
14.914
9.41339
3.80597
58.3115
58.2876
58.2302
58.138
58.0083
57.8349
57.6094
57.3221
56.9626
56.5198
55.9813
55.3337
54.5622
53.6505
52.5804
51.3323
49.885
48.2164
46.3034
44.1235
41.6557
38.8817
35.7886
32.3705
28.6315
24.5885
20.2733
15.7348
11.0377
6.30268
57.402
57.3701
57.2938
57.173
57.0064
56.7888
56.5123
56.168
55.7463
55.237
54.6291
53.9105
53.0682
52.0883
50.9555
49.6539
48.1666
46.4769
44.5684
42.4259
40.0368
37.3922
34.4884
31.3287
27.9251
24.2997
20.4858
16.5288
12.4844
8.44391
56.4882
56.4488
56.355
56.2077
56.007
55.7488
55.4259
55.0301
54.5528
53.9851
53.3171
52.5384
51.638
50.6043
49.4249
48.0874
46.5792
44.8882
43.0036
40.9165
38.6208
36.1142
33.3996
30.4859
27.3891
24.133
20.7498
17.2793
13.7681
10.2858
55.5754
55.529
55.4191
55.2474
55.0157
54.7207
54.3561
53.9145
53.3886
52.7704
52.0516
51.2235
50.277
49.2029
47.9915
46.6337
45.1206
43.4443
41.5987
39.5796
37.3859
35.0201
32.4891
29.8051
26.9856
24.0541
21.0398
17.9771
14.9042
11.874
54.6688
54.6161
54.4916
54.298
54.0383
53.7105
53.309
52.8275
52.2597
51.5989
50.8383
49.9708
48.9893
47.8867
46.6562
45.2914
43.7867
42.1378
40.3421
38.3991
36.3114
34.0846
31.7281
29.2554
26.6843
24.0367
21.3383
18.6181
15.9074
13.2464
53.7741
53.7158
53.5782
53.365
53.0806
52.7239
52.2903
51.7746
51.1715
50.4756
49.6816
48.784
47.7776
46.6574
45.4188
44.058
42.5722
40.9599
39.2215
37.3591
35.3778
33.2851
31.0917
28.8115
26.4614
24.0611
21.6331
19.2014
16.7914
14.434
52.8971
52.8338
52.6847
52.4542
52.1483
51.7666
51.3057
50.7613
50.1291
49.4052
48.5855
47.6662
46.6437
45.515
44.2775
42.9296
41.4707
39.9017
38.2249
36.4446
34.5673
32.6017
30.5589
28.4524
26.2977
24.1126
21.9159
19.7279
17.5689
15.4628
52.0437
51.976
51.8168
51.5715
51.2471
50.8442
50.3605
49.7924
49.1371
48.3916
47.5532
46.6196
45.5887
44.4591
43.2301
41.9019
40.4757
38.954
37.3407
35.6417
33.8641
32.0172
30.112
28.1611
26.1787
24.1801
22.1817
20.1998
18.2511
16.3541
51.2197
51.1483
50.9806
50.7227
50.3826
49.9622
49.4597
48.8729
48.1996
47.4383
46.5873
45.6457
44.6127
43.4885
42.2737
40.9701
39.5802
38.108
36.5584
34.9379
33.2543
31.5169
29.7362
27.9239
26.0927
24.2558
22.4271
20.6201
18.8482
17.126
50.4314
50.3568
50.1819
49.9134
49.5604
49.1257
48.6084
48.007
47.3206
46.5484
45.69
44.7456
43.7158
42.6016
41.4053
40.1295
38.778
37.3556
35.868
34.3221
32.726
31.0885
29.4197
27.7301
26.0311
24.334
22.6505
20.9919
19.3691
17.7935
49.6848
49.6076
49.4267
49.1495
48.786
48.3399
47.8111
47.199
46.5034
45.7246
44.8632
43.9202
42.8974
41.7969
40.6217
39.3756
38.063
36.6894
35.261
33.7849
32.269
30.7219
29.1527
27.5711
25.9871
24.4105
22.8512
21.3186
19.8216
18.3692
48.9861
48.9067
48.7209
48.4366
48.0649
47.6099
47.0726
46.4529
45.7515
44.9696
44.1085
43.1702
42.1572
41.0726
39.9201
38.7042
37.4298
36.103
34.73
33.3181
31.8749
30.4085
28.9274
27.4403
25.9559
24.4828
23.0294
21.6036
20.2126
18.8638
48.3418
48.2606
48.0706
47.7806
47.4023
46.9407
46.3972
45.7726
45.0682
44.2858
43.4276
42.4962
41.4949
40.4274
39.298
38.1117
36.8739
35.5908
34.2688
32.915
31.5368
30.1417
28.7376
27.3324
25.9337
24.549
23.1855
21.8499
20.5481
19.286
47.7582
47.6754
47.482
47.1872
46.8036
46.3371
45.7895
45.162
44.4566
43.6758
42.8222
41.8992
40.9105
39.8603
38.7534
37.5952
36.3915
35.1483
33.8723
32.5702
31.2492
29.9163
28.5788
27.2438
25.9181
24.6083
23.3205
22.0604
20.8331
19.6435
47.2422
47.1579
46.9611
46.6621
46.2743
45.8041
45.2538
44.625
43.9201
43.142
42.2941
41.38
40.4039
39.3705
38.2848
37.1525
35.9795
34.7719
33.5364
32.2794
31.0078
29.7282
28.4474
27.1716
25.9072
24.6599
23.4351
22.2377
21.072
19.9421
46.801
46.7148
46.5143
46.211
45.8197
45.347
44.7951
44.166
43.4625
42.688
41.846
40.9407
39.9766
38.9585
37.892
36.7826
35.6364
34.4596
33.2586
32.0399
30.8099
29.5748
28.341
27.1142
25.9002
24.7041
23.5307
22.3843
21.2686
20.187
46.4426
46.3536
46.1475
45.839
45.4442
44.9694
44.4165
43.7877
43.0862
42.3154
41.4793
40.5822
39.6288
38.6243
37.5741
36.4841
35.3604
34.2091
33.0366
31.849
30.6527
29.4535
28.2573
27.0697
25.8957
24.7402
23.6073
22.501
21.4246
20.3811
46.1767
46.0826
45.8686
45.5551
45.1578
44.6814
44.1276
43.499
42.7991
42.0315
41.2003
40.3099
39.3652
38.3715
37.3343
36.2597
35.1535
34.0221
32.8714
31.7078
30.5371
29.3652
28.1975
27.0393
25.8954
24.7702
23.6676
22.5913
21.5442
20.5289
46.0154
45.8993
45.6693
45.3517
44.9541
44.4775
43.924
43.2966
42.5989
41.8346
41.0076
40.1226
39.1845
38.1987
37.1709
36.107
35.013
33.8952
32.7596
31.6123
30.4591
29.3056
28.1571
27.0187
25.895
24.7902
23.7079
22.6516
21.624
20.6276
46.0228
45.839
45.5808
45.2578
44.8585
44.38
43.8253
43.198
42.5014
41.7391
40.9149
40.0332
39.0992
38.118
37.0955
36.0376
34.9503
33.8397
32.7119
31.5729
30.4286
29.2843
28.1455
27.017
25.9032
24.8084
23.7361
22.6895
21.6715
20.6841
-241.334
-216.492
-170.594
-81.7537
-89.1922
-91.9436
-51.605
-70.0328
-83.8642
-45.4922
-61.702
-73.7034
-34.1987
-46.0686
-55.5192
-24.0731
-33.1439
-40.6277
-16.4708
-23.5288
-29.3549
-10.3977
-15.9169
-20.4713
-5.41804
-9.80503
-13.4376
-1.32583
-4.8747
-7.82768
2.06347
-0.851609
-3.29212
4.89524
2.46662
0.418814
7.27786
5.22761
3.48545
9.29448
7.54227
6.04144
11.0098
9.49504
8.18713
12.4746
11.1509
9.99892
13.7292
12.5606
11.5358
14.8059
13.7642
12.844
15.7308
14.7935
13.9598
16.5252
15.6742
14.9125
17.2064
16.427
15.7255
17.7888
17.0689
16.4177
18.2841
17.6136
17.0043
18.702
18.0723
17.4978
19.0501
18.4538
17.908
19.3351
18.7656
18.2429
19.5602
19.0118
18.5073
19.7314
19.1984
18.7073
19.8454
19.3229
18.841
19.9108
19.3943
18.9168
-128.503
-150.344
-172.314
-190.303
-204.132
-208.99
-201.929
-185.037
-162.611
-138.238
-114.492
-92.9734
-74.4281
-58.9902
-46.4409
-36.3988
-28.4415
-22.1707
-17.2414
-13.3682
-10.3219
-7.92121
-6.0242
-4.52027
-3.32333
-2.36642
-1.59734
-0.975414
-0.469071
-0.0473818
-106.096
-139.368
-164.206
-181.912
-193.441
-195.565
-186.934
-170.599
-150.026
-128.027
-106.681
-87.2935
-70.4809
-56.3652
-44.7752
-35.4002
-27.8893
-21.9062
-17.1545
-13.3852
-10.3946
-8.01935
-6.1293
-4.62168
-3.41542
-2.44669
-1.66522
-1.03139
-0.514122
-0.084892
-102.868
-129.516
-150.129
-164.382
-171.753
-171.175
-163.143
-149.595
-132.675
-114.427
-96.4959
-79.9646
-65.3918
-52.9473
-42.556
-34.0129
-27.0627
-21.4472
-16.9297
-13.3043
-10.3982
-8.06883
-6.20045
-4.69969
-3.49171
-2.51665
-1.72673
-1.08384
-0.557641
-0.122127
-88.5313
-107.251
-123.878
-135.841
-141.579
-141.435
-135.939
-126.183
-113.523
-99.4444
-85.2258
-71.7727
-59.6144
-48.9831
-39.9067
-32.2905
-25.9782
-20.7921
-16.5573
-13.1136
-10.3208
-8.05928
-6.229
-4.74739
-3.5468
-2.57217
-1.77881
-1.13056
-0.598141
-0.158155
-67.3598
-81.4399
-95.4051
-106.281
-112.213
-113.326
-110.313
-103.935
-95.0894
-84.7924
-73.9915
-63.4224
-53.5738
-44.7176
-36.9614
-30.3014
-24.6664
-19.9507
-16.0367
-12.8076
-10.1553
-7.98336
-6.20833
-4.75913
-3.57613
-2.6097
-1.8188
-1.16965
-0.634392
-0.192266
-49.7747
-60.5083
-71.8148
-81.2062
-87.0409
-89.2096
-88.1603
-84.4387
-78.6314
-71.413
-63.467
-55.3779
-47.5779
-40.3477
-33.841
-28.116
-23.1655
-18.9414
-15.3744
-12.3862
-9.89826
-7.83643
-6.13353
-4.73039
-3.57577
-2.62601
-1.84417
-1.19924
-0.665111
-0.223708
-36.3586
-44.5533
-53.4765
-61.3167
-66.7767
-69.5956
-69.9217
-68.0928
-64.5082
-59.625
-53.9293
-47.8696
-41.8088
-36.0095
-30.6417
-25.7989
-21.5162
-17.788
-14.5828
-11.8545
-9.5504
-7.61672
-6.00177
-4.65797
-3.54268
-2.61843
-1.85272
-1.21764
-0.689135
-0.25181
-25.9522
-32.3767
-39.4848
-46.0037
-50.9385
-53.9845
-55.1366
-54.5723
-52.5561
-49.3957
-45.4292
-40.9897
-36.369
-31.7974
-27.4413
-23.4089
-19.76
-16.5177
-13.6785
-11.2216
-9.11587
-7.32526
-5.81223
-4.54018
-3.47481
-2.58494
-1.84267
-1.22341
-0.705431
-0.275969
-17.8426
-23.0351
-28.7976
-34.231
-38.5858
-41.5911
-43.187
-43.4399
-42.5089
-40.5965
-37.9344
-34.7648
-31.3146
-27.7765
-24.3011
-20.9974
-17.9368
-15.1595
-12.6811
-10.4998
-8.60171
-6.96552
-5.56608
-4.37677
-3.37121
-2.52428
-1.81274
-1.21544
-0.713154
-0.295684
-11.4451
-15.7399
-20.4912
-25.0528
-28.863
-31.7031
-33.5018
-34.2613
-34.0673
-33.0481
-31.3601
-29.1756
-26.6661
-23.9864
-21.2663
-18.6072
-16.0827
-13.7415
-11.6114
-9.70354
-8.01722
-6.54303
-5.26623
-4.16895
-3.23199
-2.43599
-1.76221
-1.19298
-0.71168
-0.310573
-6.31617
-9.93479
-13.9176
-17.7892
-21.1248
-23.754
-25.6128
-26.6715
-26.9694
-26.5837
-25.6171
-24.1897
-22.4279
-20.4527
-18.3716
-16.274
-14.2301
-12.2908
-10.4903
-8.84833
-7.37334
-6.06507
-4.91717
-3.91922
-3.05833
-2.32041
-1.69095
-1.15568
-0.700638
-0.320382
-2.14876
-5.24608
-8.63598
-11.9604
-14.8937
-17.3092
-19.1462
-20.3686
-20.9878
-21.0467
-20.6103
-19.7602
-18.5878
-17.1854
-15.6391
-14.0249
-12.4058
-10.8314
-9.33802
-7.95002
-6.68191
-5.54006
-4.52463
-3.63123
-2.85239
-2.17865
-1.59942
-1.10362
-0.679921
-0.324997
1.27538
-1.41195
-4.33692
-7.22449
-9.82185
-12.0318
-13.8064
-15.1076
-15.9317
-16.2994
-16.2499
-15.8374
-15.1265
-14.1858
-13.0829
-11.8803
-10.6325
-9.38506
-8.17352
-7.02427
-5.95526
-4.97729
-4.09529
-3.30961
-2.6172
-2.01258
-1.48866
-1.0373
-0.649702
-0.324451
4.1157
1.75614
-0.798969
-3.33477
-5.65231
-7.67553
-9.36773
-10.6946
-11.6441
-12.2232
-12.4538
-12.3709
-12.0189
-11.4479
-10.7097
-9.8543
-8.92765
-7.96971
-7.0137
-6.08583
-5.20558
-4.3864
-3.63648
-2.95969
-2.35648
-1.82469
-1.36022
-0.957619
-0.610416
-0.318911
6.49053
4.3966
2.13955
-0.110201
-2.19392
-4.05152
-5.65475
-6.97488
-7.99612
-8.71719
-9.14892
-9.31264
-9.2382
-8.96137
-8.52094
-7.95618
-7.30462
-6.60048
-5.87347
-5.14834
-4.44466
-3.77711
-3.15589
-2.58735
-2.07457
-1.61803
-1.21615
-0.865837
-0.562753
-0.308674
8.4891
6.61294
4.59884
2.58387
0.69631
-1.01588
-2.53097
-3.82541
-4.8825
-5.69643
-6.27089
-6.61798
-6.75701
-6.71288
-6.5141
-6.19082
-5.77308
-5.28938
-4.76555
-4.22404
-3.68352
-3.15888
-2.66134
-2.19878
-1.77619
-1.39606
-1.05888
-0.763547
-0.507629
-0.294157
10.1797
8.48386
6.66972
4.84901
3.12671
1.54145
0.110121
-1.14831
-2.21764
-3.0898
-3.7641
-4.24645
-4.54871
-4.68772
-4.68391
-4.56
-4.33955
-4.04578
-3.70058
-3.32369
-2.93231
-2.54076
-2.16051
-1.8003
-1.46633
-1.16259
-0.891168
-0.652614
-0.446162
-0.275873
11.6154
10.0701
8.42184
6.76299
5.18046
3.70583
2.35206
1.13451
0.068177
-0.837996
-1.58075
-2.16195
-2.58829
-2.87065
-3.02335
-3.0631
-3.00803
-2.87669
-2.68722
-2.45659
-2.20012
-1.93115
-1.66085
-1.3982
-1.15013
-0.921627
-0.716
-0.53512
-0.379632
-0.254423
12.8379
11.4189
9.90929
8.3861
6.92224
5.54378
4.26073
3.08548
2.03166
1.10825
0.319893
-0.332738
-0.852744
-1.24676
-1.52443
-1.6978
-1.78053
-1.78716
-1.73242
-1.6306
-1.49505
-1.3378
-1.16938
-0.998613
-0.832713
-0.677292
-0.53652
-0.413299
-0.309443
-0.230471
13.88
12.5678
11.1745
9.76554
8.40271
7.10781
5.88834
4.75472
3.71903
2.78982
1.97233
1.26885
0.67867
0.198184
-0.178811
-0.46071
-0.657587
-0.780635
-0.841608
-0.852306
-0.824126
-0.767703
-0.69265
-0.607395
-0.51911
-0.433716
-0.355952
-0.289491
-0.237087
-0.204723
14.7683
13.5464
12.2512
10.9385
9.66178
8.43925
7.27671
6.18278
5.16805
4.24052
3.40567
2.66666
2.02436
1.4773
1.02178
0.652187
0.361283
0.140629
-0.0189971
-0.127179
-0.193481
-0.227123
-0.23672
-0.230099
-0.214189
-0.194978
-0.177535
-0.166082
-0.164108
-0.177914
15.5239
14.3785
13.1659
11.9347
10.7312
9.57108
8.45906
7.40206
6.40927
5.48817
4.6442
3.881
3.20041
2.60241
2.08516
1.6451
1.27722
0.975279
0.732183
0.540263
0.391609
0.278347
0.192883
0.128084
0.0774049
0.0349598
-0.00446787
-0.0454638
-0.0920728
-0.15079
16.1639
15.0832
13.9401
12.7774
11.6361
10.5297
9.46193
8.43852
7.46741
6.5555
5.70807
4.92894
4.22057
3.58392
3.01844
2.52211
2.09163
1.72251
1.4094
1.14623
0.926544
0.743708
0.591103
0.462316
0.351264
0.252275
0.160122
0.0700002
-0.0225418
-0.124092
16.7021
15.6758
14.5908
13.4856
12.3967
11.336
10.3066
9.31306
8.36241
7.46098
6.61377
5.82466
5.09644
4.4307
3.82782
3.28692
2.80596
2.38184
2.01058
1.68747
1.40729
1.16447
0.953314
0.768098
0.60323
0.453316
0.313208
0.177995
0.0429418
-0.0985515
17.1493
16.1681
15.1313
14.0737
13.0285
12.0062
11.0094
10.042
9.11001
8.21923
7.37446
6.57951
5.83734
5.14997
4.51839
3.94253
3.42133
2.95273
2.53384
2.16105
1.83016
1.53652
1.27524
1.04123
0.829386
0.634611
0.451895
0.276297
0.102897
-0.0748617
17.5142
16.5698
15.5722
14.5533
13.5438
12.5531
11.5835
10.6381
9.72237
8.84162
8.00038
7.20235
6.45058
5.74732
5.09401
4.49115
3.93837
3.43443
2.97727
2.56413
2.19164
1.85594
1.5528
1.27769
1.02595
0.792781
0.573339
0.362703
0.155839
-0.0537198
17.8024
16.8871
15.9204
14.9321
13.9508
12.9854
12.0375
11.1101
10.208
9.33608
8.49866
7.69933
6.94114
6.22651
5.55714
4.93395
4.35706
3.82582
3.3388
2.89392
2.48843
2.1191
1.78222
1.47378
1.18945
0.924738
0.674945
0.435213
0.200443
-0.035724
18.0198
17.1262
16.1824
15.2168
14.2565
13.3099
12.3785
11.4647
10.573
9.70808
8.87392
8.0741
7.31163
6.58904
5.90819
5.27027
4.67576
4.12441
3.61525
3.14666
2.7164
2.32166
1.95919
1.62531
1.31601
1.02703
0.753804
0.491561
0.23519
-0.0215299
18.1656
17.2864
16.358
15.4078
14.4618
13.528
12.6078
11.7037
10.8195
9.95974
9.1282
8.32841
7.5634
6.83573
6.14738
5.49973
4.89347
4.32863
3.80456
3.31993
2.87283
2.46078
2.08079
1.72946
1.40299
1.09727
0.80789
0.530143
0.258999
-0.0114384
18.246
17.3725
16.4514
15.5086
14.5695
13.6418
12.7267
11.8266
10.9454
10.0876
9.25692
8.45678
7.69018
6.95966
6.26728
5.61449
5.00209
4.43026
3.89849
3.40564
2.94996
2.52913
2.14031
1.78023
1.44519
1.13117
0.83383
0.548533
0.270377
-0.00593488
)
;

boundaryField
{
    inlet
    {
        type            zeroGradient;
    }
    outlet
    {
        type            fixedValue;
        value           uniform 0;
    }
    flap
    {
        type            zeroGradient;
    }
    upperWall
    {
        type            zeroGradient;
    }
    lowerWall
    {
        type            zeroGradient;
    }
    frontAndBack
    {
        type            empty;
    }
}


// ************************************************************************* //
