/*--------------------------------*- C++ -*----------------------------------*\
| =========                 |                                                 |
| \\      /  F ield         | OpenFOAM: The Open Source CFD Toolbox           |
|  \\    /   O peration     | Version:  2012                                  |
|   \\  /    A nd           | Website:  www.openfoam.com                      |
|    \\/     M anipulation  |                                                 |
\*---------------------------------------------------------------------------*/
FoamFile
{
    version     2.0;
    format      ascii;
    class       pointVectorField;
    location    "0.1";
    object      pointDisplacement;
}
// * * * * * * * * * * * * * * * * * * * * * * * * * * * * * * * * * * * * * //

dimensions      [0 1 0 0 0 0 0];


internalField   nonuniform List<vector> 
5828
(
(0 0 0)
(2.57691e-10 0 0)
(8.07597e-10 0 0)
(2.24806e-09 0 0)
(5.9744e-09 0 0)
(1.52426e-08 0 0)
(3.7374e-08 0 0)
(8.81254e-08 0 0)
(1.99944e-07 0 0)
(4.36757e-07 0 0)
(9.19043e-07 0 0)
(1.86391e-06 0 0)
(3.64521e-06 0 0)
(6.87732e-06 0 0)
(1.25222e-05 0 0)
(2.20106e-05 0 0)
(3.73552e-05 0 0)
(6.12133e-05 0 0)
(9.68348e-05 0 0)
(0.000147806 0 0)
(0.00021748 0 0)
(0.000307988 0 0)
(0.000418733 0 0)
(0.000544362 0 0)
(0.000672365 0 0)
(0.000780833 0 0)
(0.000837697 0 0)
(0.000804696 0 0)
(0.000653947 0 0)
(0.00041843 0 0)
(-1.5372e-18 0 0)
(0 0 0)
(2.18081e-10 0 3.19911e-12)
(6.89688e-10 0 1.03072e-11)
(1.93597e-09 0 2.96388e-11)
(5.18599e-09 0 8.1463e-11)
(1.33352e-08 0 2.15058e-10)
(3.29518e-08 0 5.45877e-10)
(7.82958e-08 0 1.33322e-09)
(1.7899e-07 0 3.13557e-09)
(3.93905e-07 0 7.10722e-09)
(8.34958e-07 0 1.55398e-08)
(1.70558e-06 0 3.28085e-08)
(3.35915e-06 0 6.69586e-08)
(6.38153e-06 0 1.32265e-07)
(1.16984e-05 0 2.53228e-07)
(2.07e-05 0 4.70655e-07)
(3.53624e-05 0 8.50775e-07)
(5.83271e-05 0 1.49883e-06)
(9.28764e-05 0 2.57951e-06)
(0.000142719 0 4.34824e-06)
(0.000211483 0 7.19967e-06)
(0.000301813 0 1.17436e-05)
(0.000413993 0 1.8922e-05)
(0.000544094 0 3.01822e-05)
(0.000681828 0 4.77033e-05)
(0.000808625 0 7.46147e-05)
(0.00089718 0 0.000114955)
(0.000915332 0 0.000172649)
(0.000840721 0 0.000247608)
(0.000699941 0 0.000324046)
(0.000579679 0 0.000418688)
(0 0 0)
(1.67655e-10 0 5.74842e-12)
(5.393e-10 0 1.86269e-11)
(1.53704e-09 0 5.38469e-11)
(4.17678e-09 0 1.48751e-10)
(1.08914e-08 0 3.94666e-10)
(2.72837e-08 0 1.00674e-09)
(6.57012e-08 0 2.47078e-09)
(1.52174e-07 0 5.83859e-09)
(3.39192e-07 0 1.32948e-08)
(7.27994e-07 0 2.91966e-08)
(1.50528e-06 0 6.18966e-08)
(3.0001e-06 0 1.26805e-07)
(5.76612e-06 0 2.5133e-07)
(1.06918e-05 0 4.82565e-07)
(1.91335e-05 0 8.98893e-07)
(3.30559e-05 0 1.62714e-06)
(5.51445e-05 0 2.86762e-06)
(8.88363e-05 0 4.93079e-06)
(0.000138192 0 8.29132e-06)
(0.000207519 0 1.36688e-05)
(0.000300659 0 2.21486e-05)
(0.00041989 0 3.53597e-05)
(0.000564484 0 5.57207e-05)
(0.000729097 0 8.67261e-05)
(0.000902459 0 0.000133118)
(0.00106713 0 0.000200423)
(0.00120166 0 0.000292564)
(0.00128732 0 0.000405081)
(0.00132225 0 0.000511822)
(0.00132546 0 0.000599175)
(0 0 0)
(1.47934e-10 0 7.77859e-12)
(4.79798e-10 0 2.53564e-11)
(1.37797e-09 0 7.37045e-11)
(3.77283e-09 0 2.04689e-10)
(9.91208e-09 0 5.45943e-10)
(2.50167e-08 0 1.3999e-09)
(6.06921e-08 0 3.45337e-09)
(1.41618e-07 0 8.2015e-09)
(3.18007e-07 0 1.8766e-08)
(6.87585e-07 0 4.14022e-08)
(1.43227e-06 0 8.81509e-08)
(2.87584e-06 0 1.81297e-07)
(5.56884e-06 0 3.60551e-07)
(1.04048e-05 0 6.94151e-07)
(1.8766e-05 0 1.29542e-06)
(3.26854e-05 0 2.34668e-06)
(5.49965e-05 0 4.13311e-06)
(8.94238e-05 0 7.08985e-06)
(0.000140544 0 1.18674e-05)
(0.000213548 0 1.94223e-05)
(0.000313724 0 3.11407e-05)
(0.000445652 0 4.9002e-05)
(0.000612138 0 7.57729e-05)
(0.000813069 0 0.000115168)
(0.00104438 0 0.000171756)
(0.00129719 0 0.00025)
(0.00155621 0 0.00035099)
(0.00179536 0 0.000464676)
(0.00197078 0 0.000559254)
(0.0020832 0 0.000617256)
(0 0 0)
(1.31703e-10 0 9.51914e-12)
(4.30384e-10 0 3.11865e-11)
(1.24586e-09 0 9.10846e-11)
(3.43821e-09 0 2.54146e-10)
(9.10457e-09 0 6.81057e-10)
(2.31602e-08 0 1.75461e-09)
(5.66305e-08 0 4.34875e-09)
(1.33178e-07 0 1.03757e-08)
(3.01392e-07 0 2.38474e-08)
(6.56747e-07 0 5.28388e-08)
(1.37872e-06 0 1.12952e-07)
(2.78999e-06 0 2.33144e-07)
(5.44528e-06 0 4.65093e-07)
(1.02555e-05 0 8.97576e-07)
(1.86482e-05 0 1.67758e-06)
(3.27552e-05 0 3.04005e-06)
(5.56027e-05 0 5.34831e-06)
(9.12629e-05 0 9.14684e-06)
(0.000144904 0 1.52284e-05)
(0.00022267 0 2.47155e-05)
(0.00033133 0 3.91537e-05)
(0.000477658 0 6.06049e-05)
(0.000667579 0 9.17029e-05)
(0.000905127 0 0.00013558)
(0.00119117 0 0.000195443)
(0.00152127 0 0.000273262)
(0.0018804 0 0.000366479)
(0.00223046 0 0.000461375)
(0.00249391 0 0.000527826)
(0.00265098 0 0.000550646)
(0 0 0)
(1.18262e-10 0 1.10031e-11)
(3.89233e-10 0 3.62068e-11)
(1.13574e-09 0 1.06211e-10)
(3.15968e-09 0 2.97657e-10)
(8.43461e-09 0 8.01236e-10)
(2.16286e-08 0 2.0736e-09)
(5.33088e-08 0 5.16275e-09)
(1.26365e-07 0 1.23735e-08)
(2.88241e-07 0 2.85653e-08)
(6.3305e-07 0 6.35627e-08)
(1.33944e-06 0 1.36423e-07)
(2.73186e-06 0 2.82629e-07)
(5.37394e-06 0 5.65623e-07)
(1.02017e-05 0 1.0944e-06)
(1.86998e-05 0 2.04904e-06)
(3.31157e-05 0 3.71578e-06)
(5.66894e-05 0 6.53273e-06)
(9.38611e-05 0 1.11458e-05)
(0.000150395 0 1.84723e-05)
(0.000233346 0 2.97641e-05)
(0.000350791 0 4.66573e-05)
(0.00051127 0 7.11753e-05)
(0.000722884 0 0.000105632)
(0.000992003 0 0.000152329)
(0.00132132 0 0.000212866)
(0.00170626 0 0.000286697)
(0.00212715 0 0.000368271)
(0.00253292 0 0.00044211)
(0.00282532 0 0.000482089)
(0.00298011 0 0.000477799)
(0 0 0)
(1.07034e-10 0 1.22572e-11)
(3.54673e-10 0 4.0489e-11)
(1.043e-09 0 1.19248e-10)
(2.92481e-09 0 3.35573e-10)
(7.86974e-09 0 9.07139e-10)
(2.03399e-08 0 2.3579e-09)
(5.05269e-08 0 5.8965e-09)
(1.20706e-07 0 1.41947e-08)
(2.77471e-07 0 3.29135e-08)
(6.14094e-07 0 7.35522e-08)
(1.30929e-06 0 1.58511e-07)
(2.69073e-06 0 3.29647e-07)
(5.33325e-06 0 6.61988e-07)
(1.02013e-05 0 1.28459e-06)
(1.88413e-05 0 2.4105e-06)
(3.36208e-05 0 4.37719e-06)
(5.79961e-05 0 7.69749e-06)
(9.67678e-05 0 1.31184e-05)
(0.000156261 0 2.16806e-05)
(0.000244342 0 3.47651e-05)
(0.000370168 0 5.41023e-05)
(0.000543565 0 8.17022e-05)
(0.0007739 0 0.000119642)
(0.0010683 0 0.000169616)
(0.00142884 0 0.000232114)
(0.00184765 0 0.000305029)
(0.00229757 0 0.000381292)
(0.00271516 0 0.000445153)
(0.00299168 0 0.000473219)
(0.00309925 0 0.000453077)
(0 0 0)
(9.75407e-11 0 1.33052e-11)
(3.25267e-10 0 4.40951e-11)
(9.63617e-10 0 1.30329e-10)
(2.72267e-09 0 3.68127e-10)
(7.38131e-09 0 9.99039e-10)
(1.92211e-08 0 2.60734e-09)
(4.81049e-08 0 6.54753e-09)
(1.15773e-07 0 1.58289e-08)
(2.68089e-07 0 3.68589e-08)
(5.97657e-07 0 8.27162e-08)
(1.28345e-06 0 1.78992e-07)
(2.65654e-06 0 3.73693e-07)
(5.30291e-06 0 7.53157e-07)
(1.02147e-05 0 1.46622e-06)
(1.89979e-05 0 2.75874e-06)
(3.4135e-05 0 5.01975e-06)
(5.92864e-05 0 8.8382e-06)
(9.9588e-05 0 1.50658e-05)
(0.000161874 0 2.48756e-05)
(0.000254725 0 3.97975e-05)
(0.000388194 0 6.17011e-05)
(0.000573069 0 9.26815e-05)
(0.00081947 0 0.000134787)
(0.00113454 0 0.000189512)
(0.00151882 0 0.000256979)
(0.00196048 0 0.000334715)
(0.00242521 0 0.000415754)
(0.00283975 0 0.000485544)
(0.00308976 0 0.000521861)
(0.00313475 0 0.000516499)
(0 0 0)
(8.9411e-11 0 1.4171e-11)
(2.9986e-10 0 4.70876e-11)
(8.94341e-10 0 1.39584e-10)
(2.54444e-09 0 3.95528e-10)
(6.94597e-09 0 1.07709e-09)
(1.82125e-08 0 2.82125e-09)
(4.58937e-08 0 7.11158e-09)
(1.11205e-07 0 1.72597e-08)
(2.59254e-07 0 4.03508e-08)
(5.81836e-07 0 9.09144e-08)
(1.25777e-06 0 1.9751e-07)
(2.62048e-06 0 4.13936e-07)
(5.26487e-06 0 8.37307e-07)
(1.02065e-05 0 1.63553e-06)
(1.91025e-05 0 3.08651e-06)
(3.45364e-05 0 5.63028e-06)
(6.03489e-05 0 9.93223e-06)
(0.000101974 0 1.69516e-05)
(0.000166699 0 2.80016e-05)
(0.000263736 0 4.478e-05)
(0.000403932 0 6.93369e-05)
(0.000598925 0 0.000103935)
(0.000859516 0 0.000150754)
(0.00119297 0 0.00021137)
(0.00159892 0 0.000285988)
(0.00206309 0 0.000372374)
(0.00254725 0 0.000464293)
(0.0029733 0 0.000548692)
(0.00322319 0 0.000603494)
(0.00326032 0 0.000627984)
(0 0 0)
(8.23731e-11 0 1.48818e-11)
(2.77603e-10 0 4.95394e-11)
(8.32792e-10 0 1.4717e-10)
(2.38364e-09 0 4.1806e-10)
(6.54657e-09 0 1.14159e-09)
(1.72697e-08 0 2.99924e-09)
(4.37826e-08 0 7.58467e-09)
(1.06732e-07 0 1.84705e-08)
(2.50322e-07 0 4.33335e-08)
(5.65148e-07 0 9.79858e-08)
(1.22893e-06 0 2.13642e-07)
(2.5754e-06 0 4.49346e-07)
(5.2043e-06 0 9.12082e-07)
(1.01467e-05 0 1.78744e-06)
(1.90978e-05 0 3.38339e-06)
(3.4719e-05 0 6.18832e-06)
(6.09967e-05 0 1.09411e-05)
(0.000103612 0 1.87056e-05)
(0.000170241 0 3.09339e-05)
(0.000270652 0 4.9493e-05)
(0.000416423 0 7.662e-05)
(0.000620055 0 0.000114759)
(0.000893214 0 0.000166234)
(0.00124384 0 0.000232704)
(0.00167179 0 0.000314384)
(0.00216252 0 0.000409)
(0.00267708 0 0.000510302)
(0.00313609 0 0.00060539)
(0.00341662 0 0.000671699)
(0.00349437 0 0.000708136)
(0 0 0)
(7.62516e-11 0 1.54698e-11)
(2.57954e-10 0 5.15421e-11)
(7.77471e-10 0 1.53304e-10)
(2.23626e-09 0 4.36165e-10)
(6.17259e-09 0 1.1933e-09)
(1.63658e-08 0 3.14201e-09)
(4.17025e-08 0 7.96535e-09)
(1.02182e-07 0 1.94497e-08)
(2.40879e-07 0 4.57614e-08)
(5.46609e-07 0 1.03785e-07)
(1.19467e-06 0 2.26981e-07)
(2.51626e-06 0 4.78876e-07)
(5.11031e-06 0 9.74985e-07)
(1.0013e-05 0 1.91633e-06)
(1.89385e-05 0 3.63738e-06)
(3.45962e-05 0 6.66952e-06)
(6.10706e-05 0 1.18174e-05)
(0.000104223 0 2.02385e-05)
(0.000172028 0 3.35089e-05)
(0.000274715 0 5.36437e-05)
(0.000424514 0 8.30335e-05)
(0.000634776 0 0.000124246)
(0.00091819 0 0.000179638)
(0.00128381 0 0.000250742)
(0.00173261 0 0.000337389)
(0.00225093 0 0.000436579)
(0.00280023 0 0.000541022)
(0.00329979 0 0.00063689)
(0.00361901 0 0.000702038)
(0.00372935 0 0.000732362)
(0 0 0)
(7.09588e-11 0 1.59751e-11)
(2.40656e-10 0 5.32134e-11)
(7.27724e-10 0 1.58282e-10)
(2.10066e-09 0 4.50531e-10)
(5.82001e-09 0 1.23364e-09)
(1.54905e-08 0 3.25209e-09)
(3.96281e-08 0 8.25678e-09)
(9.74891e-08 0 2.01969e-08)
(2.30752e-07 0 4.76141e-08)
(5.2578e-07 0 1.08221e-07)
(1.15389e-06 0 2.37226e-07)
(2.44041e-06 0 5.01677e-07)
(4.97671e-06 0 1.02385e-06)
(9.79132e-06 0 2.01708e-06)
(1.85951e-05 0 3.83713e-06)
(3.41069e-05 0 7.05005e-06)
(6.04499e-05 0 1.25133e-05)
(0.000103577 0 2.14595e-05)
(0.000171644 0 3.55607e-05)
(0.000275191 0 5.69404e-05)
(0.000426941 0 8.80838e-05)
(0.000640968 0 0.00013159)
(0.000930939 0 0.000189708)
(0.00130712 0 0.000263605)
(0.00177178 0 0.000352374)
(0.00231233 0 0.000451839)
(0.00289027 0 0.000553291)
(0.0034225 0 0.000642216)
(0.00377088 0 0.000698796)
(0.00390407 0 0.000721612)
(0 0 0)
(6.64828e-11 0 1.64463e-11)
(2.25705e-10 0 5.47022e-11)
(6.83653e-10 0 1.62501e-10)
(1.97742e-09 0 4.62145e-10)
(5.49087e-09 0 1.26491e-09)
(1.465e-08 0 3.33442e-09)
(3.75754e-08 0 8.46853e-09)
(9.26916e-08 0 2.07279e-08)
(2.2002e-07 0 4.891e-08)
(5.02791e-07 0 1.11291e-07)
(1.10674e-06 0 2.44272e-07)
(2.34782e-06 0 5.17311e-07)
(4.80265e-06 0 1.05732e-06)
(9.47824e-06 0 2.08614e-06)
(1.80567e-05 0 3.97418e-06)
(3.32233e-05 0 7.31125e-06)
(5.90694e-05 0 1.29906e-05)
(0.000101532 0 2.22941e-05)
(0.000168793 0 3.69534e-05)
(0.000271496 0 5.91504e-05)
(0.000422605 0 9.13996e-05)
(0.000636628 0 0.000136251)
(0.000927926 0 0.000195749)
(0.00130773 0 0.0002706)
(0.00177941 0 0.000359084)
(0.00233118 0 0.000455859)
(0.00292417 0 0.000551011)
(0.00347271 0 0.000629859)
(0.00383384 0 0.00067564)
(0.00397644 0 0.000689463)
(0 0 0)
(6.28745e-11 0 1.69417e-11)
(2.13308e-10 0 5.61911e-11)
(6.45994e-10 0 1.66466e-10)
(1.86893e-09 0 4.72328e-10)
(5.19241e-09 0 1.29039e-09)
(1.38649e-08 0 3.39671e-09)
(3.55983e-08 0 8.61768e-09)
(8.79223e-08 0 2.10781e-08)
(2.08991e-07 0 4.97162e-08)
(4.78323e-07 0 1.13109e-07)
(1.05462e-06 0 2.48279e-07)
(2.24119e-06 0 5.2592e-07)
(4.59294e-06 0 1.07529e-06)
(9.08158e-06 0 2.12244e-06)
(1.73348e-05 0 4.04488e-06)
(3.19586e-05 0 7.44358e-06)
(5.69363e-05 0 1.32275e-05)
(9.80688e-05 0 2.26978e-05)
(0.000163381 0 3.76041e-05)
(0.000263369 0 6.01332e-05)
(0.00041089 0 9.27695e-05)
(0.00062047 0 0.000137964)
(0.000906696 0 0.000197543)
(0.00128133 0 0.00027184)
(0.00174859 0 0.000358574)
(0.00229759 0 0.000451716)
(0.0028896 0 0.000540733)
(0.00343739 0 0.000610953)
(0.00379594 0 0.0006476)
(0.00392785 0 0.000652248)
(0 0 0)
(6.02335e-11 0 1.75292e-11)
(2.03835e-10 0 5.78965e-11)
(6.15983e-10 0 1.70788e-10)
(1.77905e-09 0 4.8273e-10)
(4.93607e-09 0 1.31433e-09)
(1.31669e-08 0 3.44948e-09)
(3.37814e-08 0 8.72907e-09)
(8.33946e-08 0 2.13033e-08)
(1.98176e-07 0 5.01521e-08)
(4.53539e-07 0 1.13917e-07)
(1.00007e-06 0 2.49708e-07)
(2.12576e-06 0 5.28323e-07)
(4.35789e-06 0 1.07909e-06)
(8.62063e-06 0 2.12793e-06)
(1.64635e-05 0 4.0517e-06)
(3.03702e-05 0 7.44921e-06)
(5.4141e-05 0 1.3224e-05)
(9.33181e-05 0 2.26646e-05)
(0.000155581 0 3.74953e-05)
(0.000250992 0 5.98543e-05)
(0.000391919 0 9.2143e-05)
(0.000592394 0 0.000136683)
(0.000866645 0 0.000195133)
(0.00122643 0 0.000267645)
(0.00167665 0 0.000351847)
(0.00220816 0 0.000441846)
(0.00278479 0 0.000527573)
(0.00331994 0 0.000594921)
(0.0036617 0 0.000629131)
(0.00379342 0 0.000629625)
(0 0 0)
(5.86855e-11 0 1.82936e-11)
(1.97728e-10 0 6.00874e-11)
(5.95033e-10 0 1.76229e-10)
(1.7121e-09 0 4.95412e-10)
(4.73435e-09 0 1.34212e-09)
(1.25909e-08 0 3.50624e-09)
(3.22167e-08 0 8.83527e-09)
(7.93411e-08 0 2.1479e-08)
(1.88139e-07 0 5.03857e-08)
(4.29739e-07 0 1.14072e-07)
(9.45952e-07 0 2.49289e-07)
(2.00757e-06 0 5.25943e-07)
(4.10974e-06 0 1.07136e-06)
(8.11911e-06 0 2.10732e-06)
(1.54869e-05 0 4.00254e-06)
(2.8536e-05 0 7.34079e-06)
(5.08157e-05 0 1.29992e-05)
(8.74935e-05 0 2.22221e-05)
(0.000145717 0 3.66642e-05)
(0.000234835 0 5.83612e-05)
(0.00036631 0 8.95767e-05)
(0.000553118 0 0.00013247)
(0.000808398 0 0.000188557)
(0.0011431 0 0.000257975)
(0.00156224 0 0.00033865)
(0.00205918 0 0.000425608)
(0.00260484 0 0.000510602)
(0.0031288 0 0.00058255)
(0.00348365 0 0.000627298)
(0.00353 0 0.000633529)
(0 0 0)
(2.57691e-10 0 0)
(8.07597e-10 0 0)
(2.24806e-09 0 0)
(5.9744e-09 0 0)
(1.52426e-08 0 0)
(3.7374e-08 0 0)
(8.81254e-08 0 0)
(1.99944e-07 0 0)
(4.36757e-07 0 0)
(9.19043e-07 0 0)
(1.86391e-06 0 0)
(3.64521e-06 0 0)
(6.87732e-06 0 0)
(1.25222e-05 0 0)
(2.20106e-05 0 0)
(3.73552e-05 0 0)
(6.12133e-05 0 0)
(9.68348e-05 0 0)
(0.000147806 0 0)
(0.00021748 0 0)
(0.000307988 0 0)
(0.000418733 0 0)
(0.000544362 0 0)
(0.000672365 0 0)
(0.000780833 0 0)
(0.000837697 0 0)
(0.000804696 0 0)
(0.000653947 0 0)
(0.00041843 0 0)
(-1.30104e-18 0 0)
(0 0 0)
(2.18081e-10 0 3.19911e-12)
(6.89688e-10 0 1.03072e-11)
(1.93597e-09 0 2.96388e-11)
(5.18599e-09 0 8.1463e-11)
(1.33352e-08 0 2.15058e-10)
(3.29518e-08 0 5.45877e-10)
(7.82958e-08 0 1.33322e-09)
(1.7899e-07 0 3.13557e-09)
(3.93905e-07 0 7.10722e-09)
(8.34958e-07 0 1.55398e-08)
(1.70558e-06 0 3.28085e-08)
(3.35915e-06 0 6.69586e-08)
(6.38153e-06 0 1.32265e-07)
(1.16984e-05 0 2.53228e-07)
(2.07e-05 0 4.70655e-07)
(3.53624e-05 0 8.50775e-07)
(5.83271e-05 0 1.49883e-06)
(9.28764e-05 0 2.57951e-06)
(0.000142719 0 4.34824e-06)
(0.000211483 0 7.19967e-06)
(0.000301813 0 1.17436e-05)
(0.000413993 0 1.8922e-05)
(0.000544094 0 3.01822e-05)
(0.000681828 0 4.77033e-05)
(0.000808625 0 7.46147e-05)
(0.00089718 0 0.000114955)
(0.000915332 0 0.000172649)
(0.000840721 0 0.000247608)
(0.000699941 0 0.000324046)
(0.000579679 0 0.000418688)
(0 0 0)
(1.67655e-10 0 5.74842e-12)
(5.393e-10 0 1.86269e-11)
(1.53704e-09 0 5.38469e-11)
(4.17678e-09 0 1.48751e-10)
(1.08914e-08 0 3.94666e-10)
(2.72837e-08 0 1.00674e-09)
(6.57012e-08 0 2.47078e-09)
(1.52174e-07 0 5.83859e-09)
(3.39192e-07 0 1.32948e-08)
(7.27994e-07 0 2.91966e-08)
(1.50528e-06 0 6.18966e-08)
(3.0001e-06 0 1.26805e-07)
(5.76612e-06 0 2.5133e-07)
(1.06918e-05 0 4.82565e-07)
(1.91335e-05 0 8.98893e-07)
(3.30559e-05 0 1.62714e-06)
(5.51445e-05 0 2.86762e-06)
(8.88363e-05 0 4.93079e-06)
(0.000138192 0 8.29132e-06)
(0.000207519 0 1.36688e-05)
(0.000300659 0 2.21486e-05)
(0.00041989 0 3.53597e-05)
(0.000564484 0 5.57207e-05)
(0.000729097 0 8.67261e-05)
(0.000902459 0 0.000133118)
(0.00106713 0 0.000200423)
(0.00120166 0 0.000292564)
(0.00128732 0 0.000405081)
(0.00132225 0 0.000511822)
(0.00132546 0 0.000599175)
(0 0 0)
(1.47934e-10 0 7.77859e-12)
(4.79798e-10 0 2.53564e-11)
(1.37797e-09 0 7.37045e-11)
(3.77283e-09 0 2.04689e-10)
(9.91208e-09 0 5.45943e-10)
(2.50167e-08 0 1.3999e-09)
(6.06921e-08 0 3.45337e-09)
(1.41618e-07 0 8.2015e-09)
(3.18007e-07 0 1.8766e-08)
(6.87585e-07 0 4.14022e-08)
(1.43227e-06 0 8.81509e-08)
(2.87584e-06 0 1.81297e-07)
(5.56884e-06 0 3.60551e-07)
(1.04048e-05 0 6.94151e-07)
(1.8766e-05 0 1.29542e-06)
(3.26854e-05 0 2.34668e-06)
(5.49965e-05 0 4.13311e-06)
(8.94238e-05 0 7.08985e-06)
(0.000140544 0 1.18674e-05)
(0.000213548 0 1.94223e-05)
(0.000313724 0 3.11407e-05)
(0.000445652 0 4.9002e-05)
(0.000612138 0 7.57729e-05)
(0.000813069 0 0.000115168)
(0.00104438 0 0.000171756)
(0.00129719 0 0.00025)
(0.00155621 0 0.00035099)
(0.00179536 0 0.000464676)
(0.00197078 0 0.000559254)
(0.0020832 0 0.000617256)
(0 0 0)
(1.31703e-10 0 9.51914e-12)
(4.30384e-10 0 3.11865e-11)
(1.24586e-09 0 9.10846e-11)
(3.43821e-09 0 2.54146e-10)
(9.10457e-09 0 6.81057e-10)
(2.31602e-08 0 1.75461e-09)
(5.66305e-08 0 4.34875e-09)
(1.33178e-07 0 1.03757e-08)
(3.01392e-07 0 2.38474e-08)
(6.56747e-07 0 5.28388e-08)
(1.37872e-06 0 1.12952e-07)
(2.78999e-06 0 2.33144e-07)
(5.44528e-06 0 4.65093e-07)
(1.02555e-05 0 8.97576e-07)
(1.86482e-05 0 1.67758e-06)
(3.27552e-05 0 3.04005e-06)
(5.56027e-05 0 5.34831e-06)
(9.12629e-05 0 9.14684e-06)
(0.000144904 0 1.52284e-05)
(0.00022267 0 2.47155e-05)
(0.00033133 0 3.91537e-05)
(0.000477658 0 6.06049e-05)
(0.000667579 0 9.17029e-05)
(0.000905127 0 0.00013558)
(0.00119117 0 0.000195443)
(0.00152127 0 0.000273262)
(0.0018804 0 0.000366479)
(0.00223046 0 0.000461375)
(0.00249391 0 0.000527826)
(0.00265098 0 0.000550646)
(0 0 0)
(1.18262e-10 0 1.10031e-11)
(3.89233e-10 0 3.62068e-11)
(1.13574e-09 0 1.06211e-10)
(3.15968e-09 0 2.97657e-10)
(8.43461e-09 0 8.01236e-10)
(2.16286e-08 0 2.0736e-09)
(5.33088e-08 0 5.16275e-09)
(1.26365e-07 0 1.23735e-08)
(2.88241e-07 0 2.85653e-08)
(6.3305e-07 0 6.35627e-08)
(1.33944e-06 0 1.36423e-07)
(2.73186e-06 0 2.82629e-07)
(5.37394e-06 0 5.65623e-07)
(1.02017e-05 0 1.0944e-06)
(1.86998e-05 0 2.04904e-06)
(3.31157e-05 0 3.71578e-06)
(5.66894e-05 0 6.53273e-06)
(9.38611e-05 0 1.11458e-05)
(0.000150395 0 1.84723e-05)
(0.000233346 0 2.97641e-05)
(0.000350791 0 4.66573e-05)
(0.00051127 0 7.11753e-05)
(0.000722884 0 0.000105632)
(0.000992003 0 0.000152329)
(0.00132132 0 0.000212866)
(0.00170626 0 0.000286697)
(0.00212715 0 0.000368271)
(0.00253292 0 0.00044211)
(0.00282532 0 0.000482089)
(0.00298011 0 0.000477799)
(0 0 0)
(1.07034e-10 0 1.22572e-11)
(3.54673e-10 0 4.0489e-11)
(1.043e-09 0 1.19248e-10)
(2.92481e-09 0 3.35573e-10)
(7.86974e-09 0 9.07139e-10)
(2.03399e-08 0 2.3579e-09)
(5.05269e-08 0 5.8965e-09)
(1.20706e-07 0 1.41947e-08)
(2.77471e-07 0 3.29135e-08)
(6.14094e-07 0 7.35522e-08)
(1.30929e-06 0 1.58511e-07)
(2.69073e-06 0 3.29647e-07)
(5.33325e-06 0 6.61988e-07)
(1.02013e-05 0 1.28459e-06)
(1.88413e-05 0 2.4105e-06)
(3.36208e-05 0 4.37719e-06)
(5.79961e-05 0 7.69749e-06)
(9.67678e-05 0 1.31184e-05)
(0.000156261 0 2.16806e-05)
(0.000244342 0 3.47651e-05)
(0.000370168 0 5.41023e-05)
(0.000543565 0 8.17022e-05)
(0.0007739 0 0.000119642)
(0.0010683 0 0.000169616)
(0.00142884 0 0.000232114)
(0.00184765 0 0.000305029)
(0.00229757 0 0.000381292)
(0.00271516 0 0.000445153)
(0.00299168 0 0.000473219)
(0.00309925 0 0.000453077)
(0 0 0)
(9.75407e-11 0 1.33052e-11)
(3.25267e-10 0 4.40951e-11)
(9.63617e-10 0 1.30329e-10)
(2.72267e-09 0 3.68127e-10)
(7.38131e-09 0 9.99039e-10)
(1.92211e-08 0 2.60734e-09)
(4.81049e-08 0 6.54753e-09)
(1.15773e-07 0 1.58289e-08)
(2.68089e-07 0 3.68589e-08)
(5.97657e-07 0 8.27162e-08)
(1.28345e-06 0 1.78992e-07)
(2.65654e-06 0 3.73693e-07)
(5.30291e-06 0 7.53157e-07)
(1.02147e-05 0 1.46622e-06)
(1.89979e-05 0 2.75874e-06)
(3.4135e-05 0 5.01975e-06)
(5.92864e-05 0 8.8382e-06)
(9.9588e-05 0 1.50658e-05)
(0.000161874 0 2.48756e-05)
(0.000254725 0 3.97975e-05)
(0.000388194 0 6.17011e-05)
(0.000573069 0 9.26815e-05)
(0.00081947 0 0.000134787)
(0.00113454 0 0.000189512)
(0.00151882 0 0.000256979)
(0.00196048 0 0.000334715)
(0.00242521 0 0.000415754)
(0.00283975 0 0.000485544)
(0.00308976 0 0.000521861)
(0.00313475 0 0.000516499)
(0 0 0)
(8.9411e-11 0 1.4171e-11)
(2.9986e-10 0 4.70876e-11)
(8.94341e-10 0 1.39584e-10)
(2.54444e-09 0 3.95528e-10)
(6.94597e-09 0 1.07709e-09)
(1.82125e-08 0 2.82125e-09)
(4.58937e-08 0 7.11158e-09)
(1.11205e-07 0 1.72597e-08)
(2.59254e-07 0 4.03508e-08)
(5.81836e-07 0 9.09144e-08)
(1.25777e-06 0 1.9751e-07)
(2.62048e-06 0 4.13936e-07)
(5.26487e-06 0 8.37307e-07)
(1.02065e-05 0 1.63553e-06)
(1.91025e-05 0 3.08651e-06)
(3.45364e-05 0 5.63028e-06)
(6.03489e-05 0 9.93223e-06)
(0.000101974 0 1.69516e-05)
(0.000166699 0 2.80016e-05)
(0.000263736 0 4.478e-05)
(0.000403932 0 6.93369e-05)
(0.000598925 0 0.000103935)
(0.000859516 0 0.000150754)
(0.00119297 0 0.00021137)
(0.00159892 0 0.000285988)
(0.00206309 0 0.000372374)
(0.00254725 0 0.000464293)
(0.0029733 0 0.000548692)
(0.00322319 0 0.000603494)
(0.00326032 0 0.000627984)
(0 0 0)
(8.23731e-11 0 1.48818e-11)
(2.77603e-10 0 4.95394e-11)
(8.32792e-10 0 1.4717e-10)
(2.38364e-09 0 4.1806e-10)
(6.54657e-09 0 1.14159e-09)
(1.72697e-08 0 2.99924e-09)
(4.37826e-08 0 7.58467e-09)
(1.06732e-07 0 1.84705e-08)
(2.50322e-07 0 4.33335e-08)
(5.65148e-07 0 9.79858e-08)
(1.22893e-06 0 2.13642e-07)
(2.5754e-06 0 4.49346e-07)
(5.2043e-06 0 9.12082e-07)
(1.01467e-05 0 1.78744e-06)
(1.90978e-05 0 3.38339e-06)
(3.4719e-05 0 6.18832e-06)
(6.09967e-05 0 1.09411e-05)
(0.000103612 0 1.87056e-05)
(0.000170241 0 3.09339e-05)
(0.000270652 0 4.9493e-05)
(0.000416423 0 7.662e-05)
(0.000620055 0 0.000114759)
(0.000893214 0 0.000166234)
(0.00124384 0 0.000232704)
(0.00167179 0 0.000314384)
(0.00216252 0 0.000409)
(0.00267708 0 0.000510302)
(0.00313609 0 0.00060539)
(0.00341662 0 0.000671699)
(0.00349437 0 0.000708136)
(0 0 0)
(7.62516e-11 0 1.54698e-11)
(2.57954e-10 0 5.15421e-11)
(7.77471e-10 0 1.53304e-10)
(2.23626e-09 0 4.36165e-10)
(6.17259e-09 0 1.1933e-09)
(1.63658e-08 0 3.14201e-09)
(4.17025e-08 0 7.96535e-09)
(1.02182e-07 0 1.94497e-08)
(2.40879e-07 0 4.57614e-08)
(5.46609e-07 0 1.03785e-07)
(1.19467e-06 0 2.26981e-07)
(2.51626e-06 0 4.78876e-07)
(5.11031e-06 0 9.74985e-07)
(1.0013e-05 0 1.91633e-06)
(1.89385e-05 0 3.63738e-06)
(3.45962e-05 0 6.66952e-06)
(6.10706e-05 0 1.18174e-05)
(0.000104223 0 2.02385e-05)
(0.000172028 0 3.35089e-05)
(0.000274715 0 5.36437e-05)
(0.000424514 0 8.30335e-05)
(0.000634776 0 0.000124246)
(0.00091819 0 0.000179638)
(0.00128381 0 0.000250742)
(0.00173261 0 0.000337389)
(0.00225093 0 0.000436579)
(0.00280023 0 0.000541022)
(0.00329979 0 0.00063689)
(0.00361901 0 0.000702038)
(0.00372935 0 0.000732362)
(0 0 0)
(7.09588e-11 0 1.59751e-11)
(2.40656e-10 0 5.32134e-11)
(7.27724e-10 0 1.58282e-10)
(2.10066e-09 0 4.50531e-10)
(5.82001e-09 0 1.23364e-09)
(1.54905e-08 0 3.25209e-09)
(3.96281e-08 0 8.25678e-09)
(9.74891e-08 0 2.01969e-08)
(2.30752e-07 0 4.76141e-08)
(5.2578e-07 0 1.08221e-07)
(1.15389e-06 0 2.37226e-07)
(2.44041e-06 0 5.01677e-07)
(4.97671e-06 0 1.02385e-06)
(9.79132e-06 0 2.01708e-06)
(1.85951e-05 0 3.83713e-06)
(3.41069e-05 0 7.05005e-06)
(6.04499e-05 0 1.25133e-05)
(0.000103577 0 2.14595e-05)
(0.000171644 0 3.55607e-05)
(0.000275191 0 5.69404e-05)
(0.000426941 0 8.80838e-05)
(0.000640968 0 0.00013159)
(0.000930939 0 0.000189708)
(0.00130712 0 0.000263605)
(0.00177178 0 0.000352374)
(0.00231233 0 0.000451839)
(0.00289027 0 0.000553291)
(0.0034225 0 0.000642216)
(0.00377088 0 0.000698796)
(0.00390407 0 0.000721612)
(0 0 0)
(6.64828e-11 0 1.64463e-11)
(2.25705e-10 0 5.47022e-11)
(6.83653e-10 0 1.62501e-10)
(1.97742e-09 0 4.62145e-10)
(5.49087e-09 0 1.26491e-09)
(1.465e-08 0 3.33442e-09)
(3.75754e-08 0 8.46853e-09)
(9.26916e-08 0 2.07279e-08)
(2.2002e-07 0 4.891e-08)
(5.02791e-07 0 1.11291e-07)
(1.10674e-06 0 2.44272e-07)
(2.34782e-06 0 5.17311e-07)
(4.80265e-06 0 1.05732e-06)
(9.47824e-06 0 2.08614e-06)
(1.80567e-05 0 3.97418e-06)
(3.32233e-05 0 7.31125e-06)
(5.90694e-05 0 1.29906e-05)
(0.000101532 0 2.22941e-05)
(0.000168793 0 3.69534e-05)
(0.000271496 0 5.91504e-05)
(0.000422605 0 9.13996e-05)
(0.000636628 0 0.000136251)
(0.000927926 0 0.000195749)
(0.00130773 0 0.0002706)
(0.00177941 0 0.000359084)
(0.00233118 0 0.000455859)
(0.00292417 0 0.000551011)
(0.00347271 0 0.000629859)
(0.00383384 0 0.00067564)
(0.00397644 0 0.000689463)
(0 0 0)
(6.28745e-11 0 1.69417e-11)
(2.13308e-10 0 5.61911e-11)
(6.45994e-10 0 1.66466e-10)
(1.86893e-09 0 4.72328e-10)
(5.19241e-09 0 1.29039e-09)
(1.38649e-08 0 3.39671e-09)
(3.55983e-08 0 8.61768e-09)
(8.79223e-08 0 2.10781e-08)
(2.08991e-07 0 4.97162e-08)
(4.78323e-07 0 1.13109e-07)
(1.05462e-06 0 2.48279e-07)
(2.24119e-06 0 5.2592e-07)
(4.59294e-06 0 1.07529e-06)
(9.08158e-06 0 2.12244e-06)
(1.73348e-05 0 4.04488e-06)
(3.19586e-05 0 7.44358e-06)
(5.69363e-05 0 1.32275e-05)
(9.80688e-05 0 2.26978e-05)
(0.000163381 0 3.76041e-05)
(0.000263369 0 6.01332e-05)
(0.00041089 0 9.27695e-05)
(0.00062047 0 0.000137964)
(0.000906696 0 0.000197543)
(0.00128133 0 0.00027184)
(0.00174859 0 0.000358574)
(0.00229759 0 0.000451716)
(0.0028896 0 0.000540733)
(0.00343739 0 0.000610953)
(0.00379594 0 0.0006476)
(0.00392785 0 0.000652248)
(0 0 0)
(6.02335e-11 0 1.75292e-11)
(2.03835e-10 0 5.78965e-11)
(6.15983e-10 0 1.70788e-10)
(1.77905e-09 0 4.8273e-10)
(4.93607e-09 0 1.31433e-09)
(1.31669e-08 0 3.44948e-09)
(3.37814e-08 0 8.72907e-09)
(8.33946e-08 0 2.13033e-08)
(1.98176e-07 0 5.01521e-08)
(4.53539e-07 0 1.13917e-07)
(1.00007e-06 0 2.49708e-07)
(2.12576e-06 0 5.28323e-07)
(4.35789e-06 0 1.07909e-06)
(8.62063e-06 0 2.12793e-06)
(1.64635e-05 0 4.0517e-06)
(3.03702e-05 0 7.44921e-06)
(5.4141e-05 0 1.3224e-05)
(9.33181e-05 0 2.26646e-05)
(0.000155581 0 3.74953e-05)
(0.000250992 0 5.98543e-05)
(0.000391919 0 9.2143e-05)
(0.000592394 0 0.000136683)
(0.000866645 0 0.000195133)
(0.00122643 0 0.000267645)
(0.00167665 0 0.000351847)
(0.00220816 0 0.000441846)
(0.00278479 0 0.000527573)
(0.00331994 0 0.000594921)
(0.0036617 0 0.000629131)
(0.00379342 0 0.000629625)
(0 0 0)
(5.86855e-11 0 1.82936e-11)
(1.97728e-10 0 6.00874e-11)
(5.95033e-10 0 1.76229e-10)
(1.7121e-09 0 4.95412e-10)
(4.73435e-09 0 1.34212e-09)
(1.25909e-08 0 3.50624e-09)
(3.22167e-08 0 8.83527e-09)
(7.93411e-08 0 2.1479e-08)
(1.88139e-07 0 5.03857e-08)
(4.29739e-07 0 1.14072e-07)
(9.45952e-07 0 2.49289e-07)
(2.00757e-06 0 5.25943e-07)
(4.10974e-06 0 1.07136e-06)
(8.11911e-06 0 2.10732e-06)
(1.54869e-05 0 4.00254e-06)
(2.8536e-05 0 7.34079e-06)
(5.08157e-05 0 1.29992e-05)
(8.74935e-05 0 2.22221e-05)
(0.000145717 0 3.66642e-05)
(0.000234835 0 5.83612e-05)
(0.00036631 0 8.95767e-05)
(0.000553118 0 0.00013247)
(0.000808398 0 0.000188557)
(0.0011431 0 0.000257975)
(0.00156224 0 0.00033865)
(0.00205918 0 0.000425608)
(0.00260484 0 0.000510602)
(0.0031288 0 0.00058255)
(0.00348365 0 0.000627298)
(0.00353 0 0.000633529)
(-1.75404e-18 0 0)
(0.000405188 0 0)
(0.000649113 0 0)
(0.000796052 0 0)
(0.000817043 0 0)
(0.000750381 0 0)
(0.000636631 0 0)
(0.000507477 0 0)
(0.000383837 0 0)
(0.000277131 0 0)
(0.000191716 0 0)
(0.000127379 0 0)
(8.14047e-05 0 0)
(5.00861e-05 0 0)
(2.96848e-05 0 0)
(1.69519e-05 0 0)
(9.32837e-06 0 0)
(4.94626e-06 0 0)
(2.52678e-06 0 0)
(1.24332e-06 0 0)
(5.89119e-07 0 0)
(2.68718e-07 0 0)
(1.17955e-07 0 0)
(4.98087e-08 0 0)
(2.02256e-08 0 0)
(7.89464e-09 0 0)
(2.96064e-09 0 0)
(1.06537e-09 0 0)
(3.64627e-10 0 0)
(1.08936e-10 0 0)
(0 0 0)
(0.000540711 0 -0.00032986)
(0.000678978 0 -0.00023336)
(0.000832396 0 -0.000163445)
(0.000905732 0 -0.000101405)
(0.000877942 0 -5.87447e-05)
(0.00078166 0 -3.24423e-05)
(0.000650936 0 -1.71874e-05)
(0.000512617 0 -8.7121e-06)
(0.000384426 0 -4.1797e-06)
(0.000275775 0 -1.85465e-06)
(0.000189797 0 -7.23189e-07)
(0.000125556 0 -2.12479e-07)
(7.99331e-05 0 -8.67907e-09)
(4.90092e-05 0 5.40532e-08)
(2.89518e-05 0 5.91918e-08)
(1.64819e-05 0 4.58574e-08)
(9.04255e-06 0 3.03859e-08)
(4.78066e-06 0 1.82098e-08)
(2.43515e-06 0 1.01069e-08)
(1.19483e-06 0 5.2587e-09)
(5.64549e-07 0 2.58275e-09)
(2.56791e-07 0 1.20248e-09)
(1.12406e-07 0 5.32208e-10)
(4.73344e-08 0 2.24348e-10)
(1.9168e-08 0 9.01991e-11)
(7.46134e-09 0 3.46235e-11)
(2.79056e-09 0 1.26979e-11)
(1.00156e-09 0 4.4472e-12)
(3.42153e-10 0 1.47364e-12)
(1.02456e-10 0 4.21586e-13)
(0 0 0)
(0.001283 0 -0.000409578)
(0.00129232 0 -0.000321872)
(0.00127621 0 -0.000231613)
(0.00119314 0 -0.000147995)
(0.00105164 0 -8.77177e-05)
(0.00088158 0 -4.90963e-05)
(0.000705871 0 -2.60791e-05)
(0.000541284 0 -1.3077e-05)
(0.00039836 0 -6.08047e-06)
(0.000281826 0 -2.51326e-06)
(0.000191894 0 -8.18753e-07)
(0.000125856 0 -9.66404e-08)
(7.95513e-05 0 1.53139e-07)
(4.84754e-05 0 1.95598e-07)
(2.84809e-05 0 1.6255e-07)
(1.61342e-05 0 1.13561e-07)
(8.81172e-06 0 7.13253e-08)
(4.63892e-06 0 4.13851e-08)
(2.3535e-06 0 2.24849e-08)
(1.15035e-06 0 1.15253e-08)
(5.41533e-07 0 5.59907e-09)
(2.45445e-07 0 2.58555e-09)
(1.07067e-07 0 1.13718e-09)
(4.49334e-08 0 4.77043e-10)
(1.81353e-08 0 1.91069e-10)
(7.03633e-09 0 7.31261e-11)
(2.6232e-09 0 2.67574e-11)
(9.38648e-10 0 9.35598e-12)
(3.20005e-10 0 3.09867e-12)
(9.60985e-11 0 8.89824e-13)
(0 0 0)
(0.00203619 0 -0.000310059)
(0.00193912 0 -0.000254883)
(0.00178724 0 -0.000189566)
(0.00155403 0 -0.000124741)
(0.0012886 0 -7.53911e-05)
(0.00103038 0 -4.22913e-05)
(0.000796539 0 -2.19336e-05)
(0.00059521 0 -1.02753e-05)
(0.000429722 0 -4.06206e-06)
(0.000299655 0 -1.03517e-06)
(0.000201787 0 2.46268e-07)
(0.000131206 0 6.45647e-07)
(8.23658e-05 0 6.4977e-07)
(4.99134e-05 0 5.13628e-07)
(2.91935e-05 0 3.57313e-07)
(1.64763e-05 0 2.27624e-07)
(8.97067e-06 0 1.35225e-07)
(4.71037e-06 0 7.56399e-08)
(2.38456e-06 0 4.00619e-08)
(1.16341e-06 0 2.01608e-08)
(5.46848e-07 0 9.66197e-09)
(2.47538e-07 0 4.41647e-09)
(1.07867e-07 0 1.92759e-09)
(4.52296e-08 0 8.03963e-10)
(1.8242e-08 0 3.20636e-10)
(7.07375e-09 0 1.22339e-10)