/*--------------------------------*- C++ -*----------------------------------*\
| =========                 |                                                 |
| \\      /  F ield         | OpenFOAM: The Open Source CFD Toolbox           |
|  \\    /   O peration     | Version:  2012                                  |
|   \\  /    A nd           | Website:  www.openfoam.com                      |
|    \\/     M anipulation  |                                                 |
\*---------------------------------------------------------------------------*/
FoamFile
{
    version     2.0;
    format      ascii;
    class       volVectorField;
    location    "0.1";
    object      U;
}
// * * * * * * * * * * * * * * * * * * * * * * * * * * * * * * * * * * * * * //

dimensions      [0 1 -1 0 0 0 0];


internalField   nonuniform List<vector> 
2790
(
(9.95355 0 0.0227479)
(9.86078 0 0.0232339)
(9.76736 0 0.0241897)
(9.67158 0 0.0256175)
(9.57179 0 0.0275339)
(9.46639 0 0.02997)
(9.35376 0 0.03297)
(9.23222 0 0.036591)
(9.10003 0 0.0409039)
(8.9553 0 0.0459926)
(8.79602 0 0.0519535)
(8.62003 0 0.0588951)
(8.42496 2.76808e-26 0.0669362)
(8.20831 0 0.0762023)
(7.96738 7.18001e-26 0.0868174)
(7.69937 -1.63573e-25 0.0989062)
(7.4014 0 0.112558)
(7.07062 4.22703e-25 0.127832)
(6.70433 0 0.144755)
(6.30018 0 0.163228)
(5.85638 0 0.183076)
(5.37194 0 0.203983)
(4.84701 -5.95104e-24 0.225498)
(4.28313 0 0.247013)
(3.68343 0 0.26784)
(3.05268 6.16139e-22 0.287233)
(2.39719 4.96428e-26 0.304517)
(1.72417 -3.64995e-22 0.319253)
(1.04063 6.99303e-23 0.33138)
(0.351483 5.9039e-22 0.343108)
(9.95379 0 0.068126)
(9.8615 0 0.0695787)
(9.76859 0 0.0724369)
(9.67334 0 0.0767058)
(9.57414 0 0.0824356)
(9.46939 0 0.0897184)
(9.3575 0 0.0986859)
(9.23682 0 0.109509)
(9.10561 0 0.122399)
(8.96201 0 0.137607)
(8.80405 0 0.155421)
(8.62958 0 0.176166)
(8.43626 8.27971e-26 0.200199)
(8.22161 0 0.227898)
(7.98293 2.11522e-22 0.259627)
(7.71742 2.0379e-22 0.295807)
(7.42218 1.11365e-24 0.336659)
(7.09431 -9.0098e-23 0.382422)
(6.73099 -8.33557e-23 0.433149)
(6.32974 3.5425e-23 0.488612)
(5.88854 3.89673e-23 0.548277)
(5.40617 7.15494e-23 0.611248)
(4.88249 4.67387e-23 0.676157)
(4.31871 0 0.741215)
(3.7177 7.87012e-22 0.804271)
(3.08411 5.61629e-22 0.863)
(2.42435 -2.05015e-21 0.915219)
(1.74619 -1.47557e-21 0.959226)
(1.05809 9.77993e-26 0.994336)
(0.368538 4.32791e-22 1.02238)
(9.95427 0 0.113152)
(9.86295 0 0.115557)
(9.77103 0 0.120289)
(9.67685 0 0.127357)
(9.57882 0 0.136841)
(9.47537 0 0.148895)
(9.36496 0 0.163733)
(9.24597 0 0.18164)
(9.1167 0 0.202962)
(8.97537 0 0.228115)
(8.82002 0 0.257577)
(8.64857 0 0.291886)
(8.45874 0 0.33164)
(8.24806 1.24867e-24 0.37747)
(8.01389 0 0.430018)
(7.7534 0 0.489901)
(7.46363 1.84505e-24 0.557712)
(7.14159 1.25769e-23 0.633732)
(6.78429 9.50069e-24 0.718158)
(6.38893 1.07206e-23 0.810691)
(5.9531 1.57573e-22 0.910554)
(5.47507 1.44919e-22 1.01631)
(4.95407 -5.24447e-22 1.12574)
(4.39069 -4.64789e-22 1.23586)
(3.78723 1.60274e-21 1.34298)
(3.14802 1.33193e-21 1.44293)
(2.47949 0 1.53156)
(1.79022 -3.01197e-21 1.60524)
(1.09064 -3.99775e-21 1.66149)
(0.392591 -2.76982e-22 1.70088)
(9.95498 0 0.157594)
(9.8651 0 0.160928)
(9.77466 0 0.167489)
(9.68207 0 0.177284)
(9.58577 0 0.190427)
(9.48425 0 0.207125)
(9.37603 0 0.227676)
(9.25956 0 0.252469)
(9.13319 0 0.281984)
(8.99521 0 0.316794)
(8.84375 0 0.357563)
(8.6768 0 0.40504)
(8.49214 0 0.460059)
(8.28739 1.7319e-24 0.523516)
(8.05994 0 0.596333)
(7.80698 0 0.679419)
(7.52548 0 0.773597)
(7.2123 7.09994e-23 0.879492)
(6.86421 4.54233e-23 0.997388)
(6.47798 2.98201e-23 1.12709)
(6.05062 3.20299e-22 1.2677)
(5.57963 3.70323e-22 1.41738)
(5.06327 0 1.5732)
(4.50112 0 1.731)
(3.8945 -1.64762e-21 1.88543)
(3.24701 -2.74553e-21 2.03021)
(2.56496 -1.08323e-21 2.15862)
(1.85759 0 2.26429)
(1.13709 4.95717e-22 2.34203)
(0.418088 -1.30618e-21 2.38965)
(9.95592 0 0.201227)
(9.86793 0 0.205458)
(9.77945 0 0.213782)
(9.68894 0 0.226209)
(9.59492 0 0.242877)
(9.49595 0 0.264046)
(9.39062 0 0.29009)
(9.27744 0 0.321497)
(9.15488 0 0.358874)
(9.0213 0 0.402943)
(8.87496 0 0.454545)
(8.71392 0 0.514635)
(8.5361 0 0.584287)
(8.33918 0 0.664658)
(8.12065 0 0.756967)
(7.8777 0 0.862461)
(7.6073 -1.29965e-23 0.982234)
(7.30613 1.47836e-23 1.11734)
(6.97066 -3.35547e-23 1.26829)
(6.59717 1.7462e-22 1.43516)
(6.18191 7.80836e-23 1.61712)
(5.72132 -9.58305e-23 1.8122)
(5.2124 0 2.01693)
(4.65317 0 2.22615)
(4.04343 -1.71045e-21 2.43278)
(3.38549 -1.43164e-21 2.62809)
(2.68501 2.26549e-21 2.8022)
(1.95164 1.64385e-21 2.94508)
(1.19911 -3.57656e-22 3.04796)
(0.444463 -5.27784e-22 3.10523)
(9.95708 0 0.243833)
(9.87142 0 0.248921)
(9.78535 0 0.258928)
(9.6974 0 0.273863)
(9.60618 0 0.293888)
(9.51034 0 0.31931)
(9.40854 0 0.35057)
(9.29942 0 0.38825)
(9.18153 0 0.43307)
(9.05336 0 0.485893)
(8.91328 0 0.547726)
(8.75951 0 0.619724)
(8.5901 0 0.703189)
(8.40286 0 0.79955)
(8.19539 -3.01176e-24 0.910333)
(7.96495 0 1.03713)
(7.7085 -1.56334e-23 1.18147)
(7.42261 1.77925e-23 1.34478)
(7.10344 -8.08596e-23 1.52808)
(6.74673 -1.78577e-22 1.73186)
(6.34785 -6.07505e-22 1.95569)
(5.90199 -5.44922e-22 2.19776)
(5.40443 0 2.45449)
(4.85114 -1.02661e-21 2.71992)
(4.23959 -8.97047e-22 2.98542)
(3.56994 0 3.23956)
(2.8464 -1.20172e-21 3.46859)
(2.07842 -7.74413e-22 3.65771)
(1.28133 1.07694e-21 3.7933)
(0.474755 4.01644e-22 3.8657)
(9.95844 0 0.285205)
(9.87553 0 0.291101)
(9.7923 0 0.302695)
(9.70737 0 0.319993)
(9.61944 0 0.343175)
(9.52727 0 0.372589)
(9.42963 0 0.408737)
(9.32525 0 0.452281)
(9.21283 0 0.504044)
(9.09099 0 0.565015)
(8.95827 0 0.636356)
(8.81303 0 0.719406)
(8.65351 0 0.815689)
(8.4777 0 0.926899)
(8.28335 -3.49002e-24 1.05488)
(8.06785 1.58997e-23 1.2016)
(7.82822 1.81149e-23 1.36906)
(7.56099 2.06303e-23 1.5592)
(7.26205 -4.69298e-23 1.77369)
(6.92664 1.83338e-22 2.01372)
(6.54924 1.73347e-22 2.27957)
(6.1236 0 2.5701)
(5.64296 -3.04845e-22 2.88211)
(5.10052 0 3.20949)
(4.49048 0 3.54239)
(3.80954 -8.05325e-22 3.86669)
(3.05904 -1.05744e-21 4.16404)
(2.24741 -9.48293e-22 4.41329)
(1.39152 0 4.59383)
(0.514876 3.02578e-22 4.69063)
(9.96 0 0.325146)
(9.88022 0 0.331794)
(9.80023 0 0.344866)
(9.71874 0 0.364359)
(9.63456 0 0.39047)
(9.54657 0 0.423578)
(9.45364 0 0.464237)
(9.35465 0 0.513175)
(9.24843 0 0.571306)
(9.13378 0 0.63973)
(9.00939 0 0.719743)
(8.87385 0 0.812851)
(8.72558 0 0.920782)
(8.56281 3.45894e-24 1.04549)
(8.38351 0 1.18912)
(8.18529 3.58346e-23 1.35405)
(7.96531 4.08282e-23 1.54279)
(7.72014 4.65151e-23 1.75789)
(7.4456 -9.85398e-23 2.00183)
(7.13652 9.44452e-23 2.27676)
(6.78657 1.7963e-22 2.58411)
(6.38805 -3.3812e-22 2.924)
(5.93188 -1.01088e-21 3.29438)
(5.4079 0 3.68993)
(4.80576 0 4.1005)
(4.1168 8.36756e-23 4.50973)
(3.33729 3.30494e-22 4.89412)
(2.47253 1.1057e-21 5.22393)
(1.54093 6.47994e-22 5.46754)
(0.573705 2.96207e-22 5.6004)
(9.96174 0 0.363473)
(9.88546 0 0.370812)
(9.80906 0 0.385239)
(9.7314 0 0.406743)
(9.6514 0 0.435528)
(9.56803 0 0.471999)
(9.48033 0 0.516748)
(9.38729 0 0.57056)
(9.28794 0 0.63442)
(9.18121 0 0.709517)
(9.06603 0 0.797264)
(8.94121 0 0.899307)
(8.80541 0 1.01756)
(8.65714 7.63722e-24 1.15419)
(8.49466 0 1.31167)
(8.31588 3.95059e-23 1.49275)
(8.11824 1.15669e-27 1.70047)
(7.89854 7.7418e-23 1.93807)
(7.65268 1.42208e-22 2.20897)
(7.37535 0 2.51654)
(7.05967 1.86853e-22 2.86377)
(6.69669 1.77243e-22 3.25274)
(6.27501 2.74561e-22 3.68364)
(5.78061 -2.66629e-22 4.15327)
(5.1973 -1.09949e-21 4.65294)
(4.50857 1.09231e-21 5.1655)
(3.7016 -7.80949e-22 5.66256)
(2.77434 -1.04698e-21 6.10316)
(1.7443 -7.32076e-22 6.43774)
(0.653537 1.83363e-22 6.62177)
(9.96364 0 0.400018)
(9.89118 0 0.407983)
(9.81873 0 0.423632)
(9.74524 0 0.446945)
(9.66978 0 0.478129)
(9.59145 0 0.517603)
(9.50941 0 0.565988)
(9.42284 0 0.624108)
(9.3309 0 0.693)
(9.23275 0 0.773924)
(9.12753 0 0.868377)
(9.01429 0 0.97812)
(8.892 0 1.10521)
(8.75949 4.14231e-24 1.25202)
(8.61537 0 1.42128)
(8.45796 4.27708e-23 1.6161)
(8.28512 -2.43467e-23 1.84003)
(8.09409 0 2.09702)
(7.88112 3.05246e-22 2.39151)
(7.64117 -9.37743e-23 2.72825)
(7.36725 0 3.11221)
(7.04969 3.73165e-22 3.54809)
(6.67522 -1.47805e-22 4.03954)
(6.226 -1.29972e-21 4.5875)
(5.67898 -1.80254e-21 5.18743)
(5.00676 -1.05911e-21 5.82478)
(4.1816 -2.73707e-21 6.46868)
(3.18538 8.89924e-27 7.06567)
(2.02655 0 7.53862)
(0.756849 7.10757e-27 7.80367)
(9.96568 0 0.434631)
(9.89735 0 0.443149)
(9.82913 0 0.45988)
(9.76012 0 0.484788)
(9.68953 0 0.518077)
(9.61658 0 0.560173)
(9.54059 0 0.61171)
(9.4609 0 0.673536)
(9.37685 0 0.746721)
(9.28781 0 0.832568)
(9.19314 0 0.932631)
(9.0922 0 1.04875)
(8.98425 0 1.18308)
(8.8685 0 1.33815)
(8.744 -1.00367e-23 1.51689)
(8.60956 4.55928e-23 1.72272)
(8.46364 -5.18563e-23 1.95962)
(8.3041 0 2.23222)
(8.12794 1.34717e-22 2.54592)
(7.93084 -3.07586e-22 2.90695)
(7.7064 3.51479e-22 3.32245)
(7.4452 -3.03425e-22 3.80034)
(7.13322 -1.55652e-21 4.3489)
(6.74981 -5.16378e-22 4.97548)
(6.26524 3.31575e-22 5.68374)
(5.63878 1.36804e-21 6.46778)
(4.82002 -4.63428e-21 7.30173)
(3.75943 -1.71916e-21 8.12353)
(2.43669 0 8.81898)
(0.905376 4.8861e-22 9.23007)
(9.96786 0 0.467176)
(9.9039 0 0.476174)
(9.84017 0 0.493838)
(9.77591 0 0.520118)
(9.71046 0 0.555206)
(9.64319 0 0.599526)
(9.57356 0 0.653712)
(9.50108 0 0.718618)
(9.42528 0 0.795325)
(9.34575 0 0.88515)
(9.2621 0 0.989675)
(9.17396 0 1.11077)
(9.08096 0 1.25065)
(8.98271 4.67139e-24 1.41193)
(8.87874 -2.11425e-23 1.59766)
(8.76847 4.79424e-23 1.81149)
(8.65106 -5.44525e-23 2.05771)
(8.52527 0 2.34148)
(8.38918 1.41223e-22 2.66904)
(8.23974 -1.06724e-22 3.04795)
(8.0721 5.34278e-23 3.48746)
(7.87837 -4.22957e-22 3.99891)
(7.64578 -4.01016e-26 4.59596)
(7.3535 -1.11969e-21 5.29447)
(6.96781 0 6.11095)
(6.43523 1.4927e-21 7.05755)
(5.67587 -6.00403e-22 8.12895)
(4.5852 9.92976e-22 9.2736)
(3.06866 7.70829e-22 10.3432)
(1.14161 -3.45555e-22 11.0462)
(9.97014 0 0.497537)
(9.91077 0 0.506938)
(9.85175 0 0.525385)
(9.79247 0 0.552806)
(9.73237 0 0.58938)
(9.67101 0 0.635515)
(9.60798 0 0.691834)
(9.54296 0 0.759179)
(9.47568 0 0.838618)
(9.40593 0 0.931457)
(9.33359 0 1.03926)
(9.25858 0 1.1639)
(9.18088 0 1.30759)
(9.10055 9.74651e-24 1.47294)
(9.01764 -1.1004e-23 1.66306)
(8.93223 2.48997e-23 1.88165)
(8.84429 -5.64509e-23 2.13322)
(8.75371 6.41186e-23 2.4232)
(8.65993 1.4595e-22 2.75839)
(8.56176 2.26639e-22 3.14731)
(8.45677 4.47728e-22 3.6009)
(8.3403 2.20785e-22 4.13343)
(8.20354 1.00748e-21 4.76377)
(8.03003 0 5.51702)
(7.78888 1.35894e-21 6.4261)
(7.42214 0 7.53169)
(6.82298 3.75495e-21 8.87464)
(5.80736 6.15339e-22 10.4636)
(4.11363 2.57795e-21 12.1766)
(1.56309 -1.53688e-22 13.5377)
(9.97252 0 0.525617)
(9.91792 0 0.535344)
(9.86378 0 0.554419)
(9.80964 0 0.582749)
(9.75508 0 0.620491)
(9.6998 0 0.668029)
(9.64353 0 0.725961)
(9.58613 0 0.795099)
(9.52752 0 0.876477)
(9.4677 0 0.97136)
(9.40679 0 1.08127)
(9.34502 0 1.20801)
(9.28274 0 1.35374)
(9.22041 1.00645e-23 1.521)
(9.15865 0 1.71284)
(9.09822 0 1.93289)
(9.04002 -2.85966e-37 2.18563)
(8.98507 1.21396e-23 2.47652)
(8.93447 -1.1825e-22 2.81248)
(8.88929 0 3.20243)
(8.85031 2.93693e-29 3.65812)
(8.81754 0 4.19552)
(8.78912 0 4.83698)
(8.75878 -1.18727e-21 5.61483)
(8.70994 3.23663e-21 6.57731)
(8.60113 1.82312e-21 7.79812)
(8.3299 1.98623e-21 9.38977)
(7.64673 -3.24698e-21 11.5095)
(5.98926 -1.03475e-21 14.2875)
(2.42837 1.72071e-22 17.3353)
(9.97496 0 0.551336)
(9.92527 0 0.561311)
(9.87616 0 0.580861)
(9.82729 0 0.609868)
(9.77839 0 0.648461)
(9.72929 0 0.696993)
(9.67988 0 0.756023)
(9.63018 0 0.826315)
(9.58028 0 0.908848)
(9.5304 0 1.00482)
(9.48089 0 1.11567)
(9.43228 0 1.24309)
(9.38524 0 1.38913)
(9.34067 5.14867e-24 1.55618)
(9.29971 0 1.7471)
(9.26381 0 1.96532)
(9.23476 -1.85835e-22 2.21505)
(9.21475 -2.99692e-22 2.50147)
(9.2066 1.21856e-22 2.83116)
(9.21375 5.61748e-22 3.21266)
(9.24055 1.02371e-22 3.65734)
(9.29252 0 4.18095)
(9.37666 1.01624e-21 4.80604)
(9.50173 -2.35392e-21 5.56664)
(9.67775 5.4813e-21 6.51682)
(9.91186 2.5651e-21 7.74895)
(10.1868 0 9.43531)
(10.3581 -1.87653e-21 11.9326)
(9.66972 -2.41365e-21 16.0736)
(4.45895 3.77776e-21 24.047)
(0.33231 1.36153e-22 -0.321012)
(0.999669 -6.77106e-23 -0.318754)
(1.66963 -3.53667e-22 -0.310682)
(2.33183 -4.93888e-22 -0.298481)
(2.97746 -3.00509e-23 -0.282775)
(3.59897 0 -0.264364)
(4.19009 0 -0.244102)
(4.74595 0 -0.222876)
(5.26326 3.48293e-23 -0.201439)
(5.7402 3.79854e-23 -0.180463)
(6.17631 0 -0.16043)
(6.57224 -4.34914e-23 -0.141682)
(6.92951 -4.58556e-23 -0.12444)
(7.2502 0 -0.108776)
(7.5368 0 -0.0947058)
(7.79195 0 -0.0821658)
(8.01835 0 -0.0710563)
(8.21858 0 -0.0612544)
(8.39509 0 -0.0526272)
(8.55011 0 -0.0450394)
(8.6857 0 -0.0383598)
(8.80363 0 -0.0324656)
(8.90545 0 -0.0272426)
(8.99246 0 -0.0225856)
(9.06576 0 -0.0183982)
(9.12617 0 -0.0145914)
(9.17431 0 -0.011082)
(9.21054 0 -0.00779015)
(9.23495 0 -0.00463725)
(9.24735 0 -0.00154273)
(0.337393 1.41165e-21 -0.97342)
(1.0144 1.32567e-21 -0.961571)
(1.69138 0 -0.935929)
(2.35912 -1.90625e-22 -0.898228)
(3.00893 4.57131e-22 -0.850168)
(3.6332 3.42766e-22 -0.794098)
(4.22563 -4.86292e-22 -0.732631)
(4.78149 0 -0.668383)
(5.29768 -7.99305e-24 -0.60368)
(5.77266 0 -0.540475)
(6.20625 0 -0.480231)
(6.59937 0 -0.423957)
(6.95372 0 -0.372238)
(7.27156 -1.07615e-24 -0.325325)
(7.55546 0 -0.283208)
(7.80815 0 -0.245694)
(8.03233 0 -0.212473)
(8.23061 0 -0.183169)
(8.40542 0 -0.157381)
(8.55899 0 -0.134701)
(8.69334 0 -0.114734)
(8.81023 0 -0.0971138)
(8.91117 0 -0.081498)
(8.99746 0 -0.0675727)
(9.07017 0 -0.0550495)
(9.13012 0 -0.0436624)
(9.17789 0 -0.0331632)
(9.21385 0 -0.0233135)
(9.23809 0 -0.0138783)
(9.25039 0 -0.00461712)
(0.351731 4.20995e-22 -1.64261)
(1.04513 -3.93141e-21 -1.61824)
(1.73592 -2.62786e-21 -1.57203)
(2.4149 1.73069e-21 -1.506)
(3.0732 3.60863e-21 -1.42294)
(3.70294 1.5695e-21 -1.32678)
(4.29783 -9.70948e-23 -1.22202)
(4.85341 -5.13929e-22 -1.11307)
(5.3671 -5.81603e-22 -1.00389)
(5.83793 0 -0.897681)
(6.26632 0 -0.796822)
(6.65366 0 -0.702898)
(7.00209 0 -0.616795)
(7.31417 -3.5653e-24 -0.538851)
(7.59266 0 -0.46898)
(7.8404 0 -0.406815)
(8.06016 0 -0.351807)
(8.25455 0 -0.303308)
(8.42598 0 -0.260638)
(8.57666 0 -0.223114)
(8.70854 0 -0.190078)
(8.82335 0 -0.160918)
(8.92256 0 -0.135069)
(9.00742 0 -0.112011)
(9.07896 0 -0.0912677)
(9.13797 0 -0.0723998)
(9.18502 0 -0.0549974)
(9.22045 0 -0.0386666)
(9.24433 0 -0.0230195)
(9.25646 0 -0.00765852)
(0.37679 -1.7484e-22 -2.33471)
(1.09326 -1.76095e-21 -2.2952)
(1.80504 -9.48999e-22 -2.22513)
(2.50149 -2.24049e-21 -2.12674)
(3.17278 -2.12371e-22 -2.00438)
(3.81059 4.93821e-23 -1.86406)
(4.40871 -9.79268e-22 -1.71245)
(4.96328 -1.06162e-21 -1.55604)
(5.47259 4.63374e-24 -1.4004)
(5.93664 0 -1.24995)
(6.35675 0 -1.10787)
(6.73511 0 -0.976163)
(7.07446 0 -0.85587)
(7.37777 -2.47235e-24 -0.7473)
(7.64809 0 -0.650189)
(7.8884 0 -0.563928)
(8.10155 0 -0.487681)
(8.29014 0 -0.420503)
(8.45655 0 -0.36142)
(8.60291 0 -0.309466)
(8.73114 0 -0.263718)
(8.84287 0 -0.223328)
(8.9395 0 -0.187509)
(9.02224 0 -0.155543)
(9.09204 0 -0.126771)
(9.14967 0 -0.100586)
(9.19565 0 -0.0764233)
(9.23028 0 -0.0537385)
(9.25364 0 -0.0319957)
(9.26551 0 -0.0106454)
(0.411289 0 -3.05541)
(1.15992 1.58825e-22 -2.99976)
(1.90163 1.6204e-21 -2.90193)
(2.62278 2.08427e-21 -2.76554)
(3.31184 0 -2.59758)
(3.95997 -6.37272e-23 -2.40708)
(4.56141 -9.3721e-22 -2.20355)
(5.11341 -1.66437e-21 -1.99576)
(5.61564 -6.12467e-22 -1.791)
(6.0696 1.6067e-22 -1.59474)
(6.47787 2.79812e-27 -1.41075)
(6.84368 -1.81155e-22 -1.24121)
(7.17054 0 -1.08712)
(7.46196 0 -0.948564)
(7.72129 0 -0.824987)
(7.9517 0 -0.715437)
(8.15607 0 -0.618738)
(8.33699 0 -0.533611)
(8.49677 0 -0.45877)
(8.63747 0 -0.392962)
(8.76089 0 -0.335004)
(8.86857 0 -0.283811)
(8.96183 0 -0.238386)
(9.04177 0 -0.197822)
(9.10931 0 -0.161285)
(9.16511 0 -0.128011)
(9.20968 0 -0.0972848)
(9.24328 0 -0.0684216)
(9.26595 0 -0.0407436)
(9.27747 0 -0.0135569)
(0.453693 1.00385e-21 -3.81393)
(1.24713 3.95524e-22 -3.74159)
(2.03047 -1.91268e-22 -3.6105)
(2.78492 1.18352e-21 -3.42784)
(3.49666 0 -3.20526)
(4.15664 0 -2.95626)
(4.7603 -1.06916e-22 -2.69399)
(5.30685 -3.21554e-23 -2.42986)
(5.79818 -2.87523e-23 -2.17275)
(6.23777 0 -1.92896)
(6.62993 -1.75499e-22 -1.70244)
(6.97916 -9.23723e-23 -1.49526)
(7.28987 8.78269e-23 -1.30807)
(7.56614 3.77322e-24 -1.14047)
(7.81163 -3.28038e-24 -0.991517)
(8.02967 0 -0.85977)
(8.22313 0 -0.743656)
(8.39458 0 -0.641528)
(8.54621 0 -0.551773)
(8.67995 0 -0.472848)
(8.79747 0 -0.403314)
(8.90019 0 -0.34186)
(8.98932 0 -0.287291)
(9.06585 0 -0.238519)
(9.13059 0 -0.194551)
(9.18417 0 -0.154473)
(9.22701 0 -0.117434)
(9.25934 0 -0.0826133)
(9.28116 0 -0.0492031)
(9.29226 0 -0.0163732)
(0.499762 1.95914e-21 -4.62618)
(1.35863 4.80062e-22 -4.53494)
(2.19955 -9.23153e-22 -4.3612)
(2.99742 8.71894e-22 -4.11959)
(3.73634 -7.92489e-22 -3.82944)
(4.40818 -1.86901e-21 -3.51066)
(5.01101 -1.42451e-21 -3.181)
(5.54735 -5.87607e-22 -2.85461)
(6.02229 3.18868e-22 -2.54168)
(6.44205 3.41084e-22 -2.24875)
(6.813 -1.80346e-22 -1.97946)
(7.1411 -2.83543e-22 -1.73526)
(7.43171 -1.28452e-22 -1.51606)
(7.68943 4.37001e-24 -1.32084)
(7.91822 -3.79791e-24 -1.14793)
(8.12147 0 -0.995389)
(8.30201 0 -0.861163)
(8.46227 0 -0.743204)
(8.6043 0 -0.639565)
(8.72987 0 -0.548414)
(8.84049 0 -0.468067)
(8.93741 0 -0.397002)
(9.02169 0 -0.33384)
(9.09423 0 -0.277328)
(9.15572 0 -0.226326)
(9.20669 0 -0.179786)
(9.2475 0 -0.13673)
(9.27834 0 -0.0962176)
(9.29917 0 -0.0573177)
(9.30977 0 -0.0190756)
(0.547542 6.95545e-22 -5.52044)
(1.50313 -1.28301e-21 -5.40083)
(2.42242 -1.09402e-21 -5.16718)
(3.27472 2.41697e-21 -4.84675)
(4.04369 -9.46066e-22 -4.47055)
(4.72452 -1.00138e-21 -4.06717)
(5.32037 2.10649e-22 -3.65967)
(5.83901 6.18493e-22 -3.26459)
(6.29001 0 -2.89254)
(6.68301 -4.20087e-23 -2.54944)
(7.02673 -5.32733e-27 -2.23781)
(7.32864 3.42798e-22 -1.95787)
(7.59494 7.79127e-23 -1.7084)
(7.83068 0 -1.48741)
(8.03995 0 -1.29241)
(8.22608 3.7082e-24 -1.12082)
(8.39177 0 -0.970057)
(8.53927 0 -0.83766)
(8.67039 0 -0.721345)
(8.78669 0 -0.619006)
(8.88948 0 -0.528729)
(8.97983 0 -0.448803)
(9.05864 0 -0.377681)
(9.12666 0 -0.313966)
(9.18445 0 -0.256387)
(9.23247 0 -0.203777)
(9.27099 0 -0.155047)
(9.30014 0 -0.109146)
(9.31986 0 -0.065035)
(9.32989 0 -0.0216468)
(0.609685 -3.63191e-22 -6.5372)
(1.69967 0 -6.36738)
(2.72158 6.39735e-22 -6.04377)
(3.6383 -4.15685e-22 -5.61382)
(4.43613 -1.43506e-22 -5.12573)
(5.118 0 -4.61912)
(5.69606 4.36155e-22 -4.12206)
(6.18586 3.86383e-22 -3.65206)
(6.60286 0 -3.21856)
(6.96058 1.4951e-22 -2.82541)
(7.27015 1.92447e-22 -2.47296)
(7.54037 3.13887e-22 -2.15952)
(7.77803 0 -1.88229)
(7.98837 2.11457e-22 -1.638)
(8.17542 2.16407e-22 -1.42323)
(8.34227 4.08491e-24 -1.23467)
(8.49136 0 -1.06924)
(8.62466 0 -0.924007)
(8.7437 0 -0.796394)
(8.84976 0 -0.684038)
(8.94392 0 -0.584825)
(9.02703 0 -0.496874)
(9.0998 0 -0.4185)
(9.16283 0 -0.34818)
(9.21656 0 -0.284533)
(9.26132 0 -0.22629)
(9.29731 0 -0.172266)
(9.32459 0 -0.121317)
(9.34306 0 -0.0723079)
(9.35248 0 -0.0240711)
(0.70683 3.09408e-22 -7.72744)
(1.98006 8.48303e-22 -7.47015)
(3.13242 1.50736e-22 -7.00654)
(4.11915 -3.10886e-21 -6.42059)
(4.93641 1.22427e-21 -5.78598)
(5.60304 0 -5.15426)
(6.14579 -6.50971e-22 -4.55602)
(6.59106 -2.74186e-22 -4.00657)
(6.96115 0 -3.51132)
(7.27354 0 -3.07017)
(7.54135 2.41613e-22 -2.68003)
(7.77414 4.10792e-23 -2.33655)
(7.97888 0 -2.03495)
(8.1606 -2.34275e-23 -1.77048)
(8.32291 0 -1.53877)
(8.46855 0 -1.33574)
(8.59953 0 -1.15773)
(8.71741 0 -1.00147)
(8.82337 0 -0.864088)
(8.91838 0 -0.743007)
(9.00322 0 -0.635943)
(9.07851 0 -0.540883)
(9.14478 0 -0.456025)
(9.20242 0 -0.37975)
(9.25176 0 -0.310589)
(9.293 0 -0.247189)
(9.32624 0 -0.188288)
(9.3515 0 -0.132661)
(9.36864 0 -0.0790944)
(9.37738 0 -0.0263346)
(0.861622 -2.11055e-22 -9.16856)
(2.39563 -2.50832e-21 -8.75574)
(3.71019 -7.23944e-22 -8.06702)
(4.76092 1.53553e-21 -7.25628)
(5.57268 7.70296e-22 -6.43152)
(6.19465 -6.56342e-22 -5.65214)
(6.67574 -3.53505e-22 -4.94419)
(7.05553 -3.73599e-22 -4.31461)
(7.36315 0 -3.76092)
(7.61904 3.46646e-22 -3.2766)
(7.83715 2.54732e-22 -2.85396)
(8.02694 1.59351e-22 -2.48535)
(8.19477 5.42289e-23 -2.16379)
(8.34495 -4.9833e-23 -1.88304)
(8.48044 -2.16697e-23 -1.63767)
(8.60327 0 -1.42294)
(8.7149 0 -1.23471)
(8.81638 0 -1.06941)
(8.90846 0 -0.923914)
(8.99176 0 -0.795496)
(9.06674 0 -0.681744)
(9.13377 0 -0.580549)
(9.19314 0 -0.490028)
(9.24508 0 -0.408492)
(9.28976 0 -0.334406)
(9.32725 0 -0.266358)
(9.35759 0 -0.203023)
(9.38069 0 -0.143117)
(9.3964 0 -0.0853584)
(9.40442 0 -0.0284255)
(1.11837 3.27265e-22 -11.0004)
(3.04067 4.24387e-22 -10.2853)
(4.5437 4.81873e-22 -9.22098)
(5.62314 1.71144e-21 -8.08788)
(6.37619 0 -7.02498)
(6.90512 0 -6.0814)
(7.28767 -1.9292e-22 -5.26329)
(7.57618 -2.00554e-22 -4.56005)
(7.80402 0 -3.95645)
(7.99199 3.63664e-22 -3.43746)
(8.15292 0 -2.98991)
(8.29473 1.10276e-22 -2.60269)
(8.42232 -2.78672e-23 -2.26662)
(8.53869 -2.61209e-23 -1.9741)
(8.64572 -2.27435e-23 -1.71881)
(8.74457 0 -1.49546)
(8.83595 0 -1.29957)
(8.92033 0 -1.12733)
(8.99798 0 -0.975483)
(9.0691 0 -0.841189)
(9.13383 0 -0.721968)
(9.19226 0 -0.615658)
(9.24445 0 -0.520331)
(9.29044 0 -0.434259)
(9.33024 0 -0.355867)
(9.36382 0 -0.283704)
(9.39111 0 -0.216402)
(9.41196 0 -0.152634)
(9.42617 0 -0.0910702)
(9.43343 0 -0.0303337)
(1.57432 3.57371e-22 -13.5013)
(4.10434 -1.283e-21 -12.1208)
(5.77663 0 -10.4156)
(6.78 0 -8.83923)
(7.37369 3.90259e-22 -7.50326)
(7.73714 4.09514e-22 -6.39818)
(7.97471 0 -5.48516)
(8.14365 9.99219e-22 -4.72539)
(8.27479 0 -4.08718)
(8.38472 -4.30558e-22 -3.54615)
(8.48239 -2.80654e-23 -3.0838)
(8.57252 2.8364e-23 -2.686)
(8.65755 0 -2.34178)
(8.73865 0 -2.04256)
(8.81625 -2.35721e-23 -1.78143)
(8.89044 0 -1.55277)
(8.96108 -8.94497e-24 -1.3519)
(9.02798 0 -1.17493)
(9.09088 0 -1.01854)
(9.14955 0 -0.879875)
(9.20379 0 -0.756438)
(9.2534 0 -0.646059)
(9.29822 0 -0.546808)
(9.3381 0 -0.456944)
(9.37289 0 -0.374883)
(9.40243 0 -0.299154)
(9.42657 0 -0.22837)
(9.44509 0 -0.161174)
(9.45774 0 -0.0962065)
(9.46423 0 -0.0320515)
(2.48058 -2.62377e-25 -17.2961)
(5.99896 -2.7699e-21 -14.2304)
(7.6287 4.03731e-21 -11.4674)
(8.30104 0 -9.36038)
(8.56769 1.81285e-21 -7.7726)
(8.67241 9.17447e-22 -6.54919)
(8.71614 2.57195e-22 -5.58051)
(8.7403 1.01378e-21 -4.79465)
(8.76171 0 -4.14437)
(8.78689 -3.8053e-22 -3.59786)
(8.81779 0 -3.13296)
(8.85445 -5.85933e-23 -2.73375)
(8.89603 6.75103e-23 -2.38841)
(8.9414 0 -2.08791)
(8.98936 -2.41514e-23 -1.82521)
(9.03878 0 -1.59463)
(9.08862 -9.20726e-24 -1.39154)
(9.13798 0 -1.21207)
(9.18607 0 -1.05298)
(9.23223 0 -0.911455)
(9.27591 0 -0.785061)
(9.31663 0 -0.67167)
(9.35399 0 -0.569381)
(9.38767 0 -0.47648)
(9.41736 0 -0.391394)
(9.4428 0 -0.31266)
(9.46372 0 -0.238887)
(9.47986 0 -0.168709)
(9.49093 0 -0.10075)
(9.49662 0 -0.0335733)
(4.58336 5.07511e-21 -23.9719)
(9.69377 3.38937e-21 -16.017)
(10.3576 7.54837e-21 -11.8979)
(10.1791 -4.30304e-21 -9.40898)
(9.89837 -4.18559e-21 -7.72223)
(9.65724 2.04354e-21 -6.48483)
(9.47318 2.00462e-21 -5.5271)
(9.33963 0 -4.75781)
(9.24678 0 -4.12355)
(9.186 6.22852e-22 -3.59068)
(9.15032 6.95063e-22 -3.13666)
(9.13415 1.20886e-22 -2.74578)
(9.13304 1.91012e-22 -2.40655)
(9.14338 5.58329e-23 -2.11029)
(9.16233 0 -1.8503)
(9.18748 -8.57751e-23 -1.62119)
(9.2169 0 -1.41859)
(9.24902 0 -1.23882)
(9.28251 0 -1.07883)
(9.31629 0 -0.935941)
(9.34949 0 -0.807834)
(9.38136 0 -0.692472)
(9.41128 0 -0.588028)
(9.43876 0 -0.49284)
(9.46334 0 -0.405375)
(9.48464 0 -0.324197)
(9.50233 0 -0.247932)
(9.51606 0 -0.175223)
(9.52553 0 -0.104692)
(9.5304 0 -0.0348955)
(9.97751 0 0.575033)
(9.93293 0 0.585181)
(9.88903 0 0.605057)
(9.84561 0 0.634517)
(9.80255 0 0.673656)
(9.7598 0 0.722784)
(9.71741 0 0.782409)
(9.67554 0 0.853233)
(9.63447 0 0.936155)
(9.5946 0 1.03228)
(9.55653 0 1.14292)
(9.52103 0 1.26963)
(9.4891 0 1.41426)
(9.46205 0 1.57899)
(9.4415 0 1.76637)
(9.42953 0 1.97947)
(9.42874 0 2.22201)
(9.44249 -3.16056e-22 2.49856)
(9.4751 -5.01628e-22 2.81484)
(9.53229 -9.25151e-22 3.17817)
(9.62171 -5.09424e-22 3.59832)
(9.75415 0 4.08846)
(9.94528 -1.12032e-21 4.66731)
(10.2192 -3.29889e-21 5.3625)
(10.6159 -3.18794e-21 6.21696)
(11.2097 -6.2981e-21 7.30224)
(12.1605 1.84948e-21 8.74716)
(13.8873 2.28573e-21 10.8095)
(17.7279 1.65536e-20 14.0714)
(28.6791 2.43618e-20 20.0373)
(9.98017 0 0.596795)
(9.94092 0 0.607042)
(9.90245 0 0.627095)
(9.86471 0 0.656782)
(9.82769 0 0.696158)
(9.79148 0 0.745482)
(9.75628 0 0.805197)
(9.72239 0 0.875926)
(9.69024 0 0.958468)
(9.66045 0 1.0538)
(9.63379 0 1.16309)
(9.61129 0 1.28769)
(9.59426 -7.56121e-23 1.42921)
(9.58431 0 1.58951)
(9.5835 0 1.77076)
(9.59447 0 1.97552)
(9.62051 0 2.20678)
(9.66584 -6.5305e-23 2.46822)
(9.7361 0 2.7642)
(9.83866 0 3.10025)
(9.98372 0 3.48319)
(10.1856 4.14722e-22 3.92187)
(10.4657 0 4.4277)
(10.8565 0 5.01553)
(11.4117 -1.20573e-21 5.70425)
(12.2236 -1.37727e-21 6.51534)
(13.4612 3.15441e-21 7.46277)
(15.4362 1.79778e-21 8.50695)
(18.6626 0 9.36494)
(23.4674 9.25969e-22 8.76273)
(9.98291 0 0.616237)
(9.94915 0 0.626502)
(9.91627 0 0.646576)
(9.88432 0 0.676253)
(9.85345 0 0.715545)
(9.82387 0 0.764651)
(9.79591 0 0.823938)
(9.76999 0 0.893935)
(9.74672 0 0.975321)
(9.72684 0 1.06893)
(9.71134 0 1.17573)
(9.70142 0 1.29686)
(9.69864 -7.58455e-23 1.43363)
(9.70489 0 1.58751)
(9.72257 0 1.76021)
(9.75466 0 1.95366)
(9.80494 0 2.16999)
(9.87833 0 2.41171)
(9.98106 0 2.68164)
(10.1215 -1.57788e-22 2.98288)
(10.3109 9.16347e-22 3.31889)
(10.5648 -7.28605e-22 3.69321)
(10.9055 -3.75208e-21 4.10875)
(11.3652 -6.25991e-21 4.56646)
(11.9915 -7.22263e-21 5.06134)
(12.8558 -1.17759e-21 5.57295)
(14.0585 1.27654e-21 6.04359)
(15.7199 0 6.3265)
(17.8951 0 6.08009)
(20.2864 3.44375e-20 4.61807)
(9.98571 0 0.633159)
(9.95756 0 0.643362)
(9.93036 0 0.663298)
(9.9043 0 0.692727)
(9.87964 0 0.731612)
(9.85671 0 0.780087)
(9.83596 0 0.838434)
(9.81793 0 0.907071)
(9.80334 0 0.986546)
(9.79309 0 1.07752)
(9.7883 0 1.18076)
(9.79033 0 1.29714)
(9.8009 0 1.42763)
(9.82209 0 1.57331)
(9.85651 0 1.73533)
(9.90736 0 1.9149)
(9.97867 -2.08231e-22 2.11327)
(10.0755 -2.66704e-22 2.33169)
(10.2043 0 2.57123)
(10.3734 1.09844e-21 2.83265)
(10.5937 9.56954e-22 3.11597)
(10.8797 2.30453e-21 3.41976)
(11.2503 -1.19786e-21 3.73976)
(11.7312 -4.1113e-21 4.06619)
(12.3549 -9.25604e-22 4.37907)
(13.1602 0 4.63906)
(14.1846 -5.04248e-22 4.77216)
(15.4372 4.90947e-22 4.64765)
(16.8394 0 4.05907)
(18.1304 -3.07517e-20 2.76126)
(9.98855 0 0.64737)
(9.96608 0 0.657432)
(9.94462 0 0.677071)
(9.92448 0 0.706018)
(9.90603 0 0.74418)
(9.88971 0 0.791621)
(9.87605 0 0.848529)
(9.86572 0 0.915206)
(9.85954 0 0.992053)
(9.85849 0 1.07955)
(9.86379 0 1.17824)
(9.87693 0 1.28871)
(9.89971 0 1.4116)
(9.9343 0 1.54753)
(9.98339 0 1.6971)
(10.0502 0 1.86081)
(10.1387 5.39433e-23 2.03901)
(10.2538 -5.90427e-23 2.2317)
(10.4015 -5.50679e-22 2.4384)
(10.5895 -5.60634e-22 2.65772)
(10.8271 -1.07015e-21 2.88687)
(11.1259 -1.34325e-21 3.12071)
(11.4999 7.0853e-22 3.35022)
(11.9654 -3.76465e-22 3.56017)
(12.5392 -5.31454e-21 3.72535)
(13.2347 -5.60917e-21 3.80553)
(14.0515 -1.27056e-20 3.73965)
(14.9577 -2.53673e-20 3.44327)
(15.8648 -1.35993e-20 2.82016)
(16.6099 9.53123e-23 1.80772)
(9.99141 0 0.658698)
(9.97465 0 0.668541)
(9.95894 0 0.687731)
(9.9447 0 0.715966)
(9.93241 0 0.753101)
(9.92258 0 0.799123)
(9.91583 0 0.854123)
(9.91293 0 0.91828)
(9.91473 0 0.991841)
(9.92233 0 1.0751)
(9.93699 0 1.16836)
(9.96022 0 1.27194)
(9.99386 0 1.38612)
(10.0401 0 1.51109)
(10.1015 0 1.64691)
(10.1811 0 1.79342)
(10.2827 0 1.95011)
(10.4107 -5.59791e-23 2.11598)
(10.5704 -6.20178e-22 2.28919)
(10.7679 -1.84071e-21 2.46679)
(11.0104 -1.09591e-21 2.64405)
(11.3062 2.39463e-21 2.8137)
(11.6637 1.56426e-22 2.96469)
(12.0909 -2.88676e-21 3.08066)
(12.5929 5.33605e-21 3.13802)
(13.1673 5.57931e-21 3.10436)
(13.7981 1.13855e-20 2.93847)
(14.4467 1.21073e-20 2.59491)
(15.0454 -1.27516e-20 2.03757)
(15.5013 -6.67165e-23 1.26545)
(9.99426 0 0.666991)
(9.98319 0 0.67654)
(9.97319 0 0.695135)
(9.96479 0 0.722443)
(9.95853 0 0.758264)
(9.95501 0 0.802509)
(9.95493 0 0.85517)
(9.95908 0 0.916301)
(9.96839 0 0.985994)
(9.98397 0 1.06435)
(10.0071 0 1.15146)
(10.0393 0 1.24736)
(10.0823 0 1.35199)
(10.1382 0 1.46514)
(10.2094 0 1.5864)
(10.2988 0 1.71503)
(10.4094 0 1.84984)
(10.5452 -2.79134e-22 1.98899)
(10.7102 -3.96186e-22 2.12975)
(10.909 0 2.26816)
(11.1467 1.18031e-21 2.39854)
(11.4279 1.34297e-21 2.51291)
(11.7565 -2.69632e-21 2.60032)
(12.1345 -2.43016e-21 2.64607)
(12.5594 -1.39127e-22 2.6313)
(13.0222 0 2.53337)
(13.503 0 2.32798)
(13.9689 -1.17317e-20 1.99428)
(14.3743 -1.20988e-20 1.52374)
(14.6677 -1.24265e-20 0.93175)
(9.99708 0 0.672116)
(9.99163 0 0.681301)
(9.98726 0 0.699167)
(9.98457 0 0.725348)
(9.98417 0 0.759594)
(9.98673 0 0.801741)
(9.99297 0 0.851681)
(10.0037 0 0.909347)
(10.02 0 0.974681)
(10.0428 0 1.04761)
(10.0734 0 1.12799)
(10.1133 0 1.21563)
(10.1641 0 1.31016)
(10.2278 0 1.41103)
(10.3063 0 1.51742)
(10.4023 0 1.62814)
(10.5182 0 1.7415)
(10.6571 4.90728e-23 1.85509)
(10.8218 -5.20001e-23 1.96573)
(11.0156 6.37919e-22 2.06899)
(11.2412 5.95127e-22 2.15906)
(11.5005 5.89465e-23 2.22833)
(11.7942 -5.9973e-23 2.26718)
(12.1202 2.74657e-21 2.26387)
(12.4729 -2.75849e-21 2.20483)
(12.8409 -5.43937e-21 2.07581)
(13.2064 0 1.86421)
(13.5447 -5.69641e-21 1.56255)
(13.8267 -1.17137e-20 1.17344)
(14.0235 -1.06259e-26 0.713359)
(9.99985 0 0.673967)
(9.9999 0 0.682726)
(10.001 0 0.699739)
(10.0039 0 0.724617)
(10.0091 0 0.757057)
(10.0174 0 0.796825)
(10.0296 0 0.843721)
(10.0465 0 0.89756)
(10.069 0 0.958145)
(10.0983 0 1.02524)
(10.1354 0 1.09851)
(10.1817 0 1.17753)
(10.2387 0 1.2617)
(10.3081 0 1.35017)
(10.3917 0 1.44185)
(10.4914 0 1.5352)
(10.6092 0 1.62822)
(10.7472 3.2993e-22 1.71828)
(10.9074 -1.70662e-27 1.80196)
(11.0914 -2.43998e-22 1.87493)
(11.3003 5.9826e-22 1.93179)
(11.5342 6.10639e-22 1.96595)
(11.7913 0 1.96966)
(12.068 5.11591e-23 1.93427)
(12.3571 0 1.85084)
(12.6483 2.67876e-21 1.7113)
(12.9271 2.73776e-21 1.5101)
(13.1763 3.29434e-23 1.24641)
(13.3774 0 0.92622)
(13.5142 0 0.563383)
(10.0025 0 0.672463)