/*--------------------------------*- C++ -*----------------------------------*\
| =========                 |                                                 |
| \\      /  F ield         | OpenFOAM: The Open Source CFD Toolbox           |
|  \\    /   O peration     | Version:  2012                                  |
|   \\  /    A nd           | Website:  www.openfoam.com                      |
|    \\/     M anipulation  |                                                 |
\*---------------------------------------------------------------------------*/
FoamFile
{
    version     2.0;
    format      ascii;
    class       surfaceVectorField;
    location    "0.1";
    object      Uf;
}
// * * * * * * * * * * * * * * * * * * * * * * * * * * * * * * * * * * * * * //

dimensions      [0 1 -1 0 0 0 0];


internalField   nonuniform List<vector> 
5457
(
(9.92304 -9.45705e-28 0.0242222)
(9.97204 6.38187e-31 0.0376869)
(9.83013 0 0.0312356)
(9.93174 0 0.0466045)
(9.72118 0 0.0368387)
(9.86198 7.8963e-26 0.0559653)
(9.59399 0 0.0423504)
(9.7667 -3.2011e-26 0.0669182)
(9.44895 0 0.0476698)
(9.6505 0 0.0781536)
(9.28715 -2.90462e-25 0.0527523)
(9.51475 -1.09652e-24 0.0892955)
(9.1096 -4.5488e-24 0.0577087)
(9.35978 1.11122e-24 0.100359)
(8.91707 8.15657e-25 0.0627022)
(9.18626 -4.79735e-24 0.111454)
(8.71004 2.60296e-23 0.0679119)
(8.99503 -4.84628e-24 0.122753)
(8.48856 4.44672e-24 0.0735255)
(8.78676 3.59295e-23 0.134495)
(8.25225 -4.36286e-24 0.0797293)
(8.56169 -1.07852e-23 0.146969)
(8.00031 2.06461e-22 0.0866966)
(8.3196 6.73701e-23 0.160478)
(7.73159 -1.01701e-23 0.0945799)
(8.05981 1.47765e-22 0.175307)
(7.44467 -8.89451e-23 0.103506)
(7.7813 -1.98436e-22 0.191703)
(7.13799 1.04599e-22 0.113574)
(7.48277 3.70796e-24 0.209857)
(6.80994 4.80797e-22 0.124854)
(7.16276 0 0.229894)
(6.45901 4.69497e-22 0.137379)
(6.81977 4.74283e-22 0.251859)
(6.08388 -2.20996e-21 0.151147)
(6.45239 0 0.275705)
(5.68357 1.43714e-22 0.166108)
(6.05941 -2.18406e-21 0.301279)
(5.25756 4.778e-21 0.182163)
(5.64 4.49859e-21 0.328308)
(4.80596 -2.89787e-21 0.199155)
(5.19381 1.82585e-22 0.356384)
(4.32957 -8.16716e-21 0.216872)
(4.72113 -2.76567e-21 0.384963)
(3.83007 -9.16401e-21 0.235055)
(4.22306 -3.06687e-22 0.413375)
(3.31002 5.46597e-22 0.253421)
(3.70159 2.8474e-20 0.44085)
(2.7729 6.58978e-20 0.271687)
(3.15967 6.6361e-21 0.466586)
(2.22296 -1.34812e-19 0.28962)
(2.60123 3.30985e-21 0.489826)
(1.66499 -4.72171e-20 0.307028)
(2.03097 -1.37264e-20 0.509951)
(1.10397 -9.35683e-20 0.323951)
(1.45423 4.63149e-19 0.526479)
(0.543891 -9.0593e-19 0.335511)
(0.86957 1.28117e-19 0.53953)
(0.361405 -1.21667e-18 0.531872)
(9.99794 9.43867e-28 0.0496164)
(9.99776 9.62769e-28 0.0386944)
(9.96239 7.99066e-26 0.0678079)
(9.9811 -1.16062e-26 0.0644371)
(9.9031 4.56782e-26 0.0841991)
(9.93833 7.89295e-26 0.0864205)
(9.82085 -3.16285e-26 0.101415)
(9.86952 -1.28466e-25 0.110195)
(9.71505 -1.10962e-24 0.119071)
(9.77724 -6.58127e-26 0.135162)
(9.58607 3.31717e-25 0.13677)
(9.66243 -1.09652e-24 0.160478)
(9.43481 7.92018e-25 0.154475)
(9.52536 2.52065e-24 0.185853)
(9.26237 -1.04593e-23 0.172336)
(9.36665 2.89737e-24 0.211281)
(9.06977 5.54207e-24 0.19062)
(9.18731 -1.21355e-23 0.236948)
(8.85777 2.01349e-23 0.209691)
(8.98825 1.99524e-23 0.263236)
(8.62671 6.1876e-23 0.229976)
(8.7701 -5.12261e-24 0.290672)
(8.3765 9.62088e-24 0.251915)
(8.53298 7.76764e-23 0.319857)
(8.10659 -4.46501e-23 0.275915)
(8.27658 -1.36285e-22 0.351393)
(7.81604 -1.03435e-22 0.302319)
(8.00018 4.6908e-23 0.38583)
(7.50365 -1.00997e-22 0.331382)
(7.70268 -1.02215e-22 0.423617)
(7.16806 -1.2707e-24 0.36325)
(7.38277 0 0.465079)
(6.80784 -1.24083e-24 0.397941)
(7.03898 -4.45682e-22 0.510385)
(6.42168 0 0.435322)
(6.66984 0 0.559516)
(6.0085 2.24902e-21 0.475092)
(6.27401 -1.00676e-21 0.612241)
(5.56763 -1.46681e-22 0.516757)
(5.85039 3.26536e-21 0.668075)
(5.09892 2.81499e-22 0.559624)
(5.39833 2.23286e-21 0.72626)
(4.60295 5.13629e-21 0.602801)
(4.91772 -1.19033e-20 0.785737)
(4.08112 3.76742e-20 0.645232)
(4.40925 2.45118e-21 0.845164)
(3.53586 3.42981e-20 0.68577)
(3.87449 -9.3024e-21 0.90295)
(2.9706 -5.59794e-20 0.723285)
(3.31607 9.55499e-20 0.957364)
(2.38976 1.24309e-19 0.756815)
(2.73776 -4.65026e-19 1.00668)
(1.79858 5.0296e-19 0.785686)
(2.14438 1.74202e-19 1.04937)
(1.20264 6.8131e-19 0.809914)
(1.54212 5.64038e-19 1.08425)
(0.606519 -1.96137e-19 0.819537)
(0.928392 -1.71915e-19 1.11164)
(0.386336 -3.87751e-20 1.10662)
(9.9906 -1.17463e-26 0.0565867)
(9.99552 3.80527e-27 0.0432999)
(9.95793 -1.14988e-26 0.0859371)
(9.97628 -1.93009e-26 0.0808198)
(9.90195 -9.76567e-26 0.114837)
(9.93438 -4.02245e-29 0.115179)
(9.82393 -1.61927e-25 0.145567)
(9.86843 -9.64642e-26 0.151244)
(9.72348 -6.50262e-26 0.177599)
(9.77973 6.47933e-26 0.189286)
(9.60055 1.13581e-24 0.210156)
(9.669 0 0.228321)
(9.45571 4.63038e-24 0.24289)
(9.53653 1.12239e-24 0.267722)
(9.28986 1.04133e-24 0.275812)
(9.38287 1.19865e-24 0.307298)
(9.10388 2.66023e-24 0.309215)
(9.20888 2.39139e-24 0.347214)
(8.89849 -5.60239e-24 0.343629)
(9.01542 -1.94844e-23 0.387958)
(8.67405 1.16643e-23 0.379741)
(8.80306 -1.03609e-23 0.430265)
(8.43046 -7.07885e-23 0.418305)
(8.57196 2.16428e-23 0.475014)
(8.16723 -4.25258e-23 0.460055)
(8.3218 -1.79534e-22 0.523119)
(7.88346 4.63483e-23 0.505638)
(8.05189 4.6908e-23 0.575433)
(7.57792 0 0.555569)
(7.76113 -4.92917e-23 0.63269)
(7.2492 -4.49551e-22 0.610191)
(7.44816 5.05322e-23 0.695449)
(6.89575 -4.38986e-22 0.669634)
(7.11145 -4.44264e-22 0.764049)
(6.51607 -1.01869e-21 0.73378)
(6.74936 0 0.838569)
(6.10878 5.97566e-23 0.802219)
(6.36032 -6.76802e-21 0.918773)
(5.67281 5.63371e-21 0.874207)
(5.9429 7.15925e-21 1.00406)
(5.20755 -1.01155e-20 0.948634)
(5.496 2.95046e-22 1.0934)
(4.713 -1.4419e-20 1.02401)
(5.01899 -2.35501e-20 1.18531)
(4.19001 -4.46531e-20 1.09847)
(4.51193 1.95749e-20 1.27782)
(3.64043 5.31904e-20 1.16989)
(3.97574 -1.64309e-21 1.36851)
(3.06726 -3.20025e-19 1.23597)
(3.41248 5.13227e-20 1.45461)
(2.47476 -4.07699e-19 1.29449)
(2.82548 -4.09251e-19 1.53319)
(1.86842 2.39842e-19 1.34348)
(2.21945 -2.69123e-21 1.6014)
(1.25477 -2.97645e-19 1.38198)
(1.60144 2.39806e-19 1.65674)
(0.64057 -1.25745e-20 1.39524)
(0.968165 -5.88709e-19 1.69872)
(0.403397 1.00837e-18 1.69298)
(9.98672 -4.03208e-27 0.0678567)
(9.99437 -1.86266e-27 0.0498018)
(9.954 -7.6012e-27 0.109226)
(9.97345 -5.78247e-27 0.0972332)
(9.89909 0 0.150772)
(9.93146 -3.10077e-26 0.143385)
(9.82246 1.32144e-25 0.1943)
(9.86683 0 0.19156)
(9.72404 1.29023e-25 0.239506)
(9.78011 1.30583e-25 0.24232)
(9.6038 0 0.285559)
(9.6719 2.67084e-25 0.294681)
(9.46224 -2.30834e-24 0.331956)
(9.54252 2.78643e-25 0.347736)
(9.3002 2.56291e-24 0.378649)
(9.39256 -1.7051e-24 0.401105)
(9.11854 -2.00145e-23 0.426002)
(9.22282 1.05927e-23 0.454923)
(8.91793 -2.41333e-23 0.474714)
(9.03414 6.94272e-24 0.50978)
(8.69869 0 0.52572)
(8.82705 -4.48774e-23 0.566617)
(8.46074 -8.95055e-23 0.580063)
(8.60169 6.19852e-23 0.626583)
(8.20357 -8.73931e-23 0.638779)
(8.35777 2.02019e-23 0.690893)
(7.92626 -4.98798e-23 0.70281)
(8.09456 0 0.760714)
(7.62759 2.42989e-24 0.772935)
(7.81097 -4.92917e-23 0.83707)
(7.30605 4.99308e-23 0.849713)
(7.50558 -5.01395e-23 0.920781)
(6.96001 0 0.933433)
(7.17678 1.76379e-21 1.0124)
(6.58776 -5.82951e-21 1.02406)
(6.82277 0 1.11216)
(6.18765 4.95036e-22 1.12116)
(6.44172 -5.72162e-21 1.21989)
(5.75824 1.74145e-21 1.22386)
(6.03189 6.1167e-21 1.33497)
(5.29841 -1.34171e-20 1.33075)
(5.59168 -4.25486e-21 1.45622)
(4.80757 1.09425e-20 1.43987)
(5.11988 -3.47332e-22 1.58183)
(4.28589 6.23503e-20 1.54866)
(4.61585 1.97122e-20 1.70929)
(3.73452 -2.84668e-21 1.65405)
(4.07974 4.23634e-20 1.83537)
(3.15589 -4.32737e-20 1.75254)
(3.51283 -4.42351e-20 1.95621)
(2.55392 4.31152e-22 1.8405)
(2.91787 1.00111e-21 2.06744)
(1.93418 0 1.91439)
(2.29926 -2.42096e-19 2.16455)
(1.30405 -6.15976e-20 1.97186)
(1.66483 2.07458e-19 2.24313)
(0.672115 4.49607e-19 1.99248)
(1.01035 2.51443e-19 2.30116)
(0.421635 3.82941e-20 2.29362)
(9.98492 -3.65762e-27 0.0797508)
(9.99385 -1.09859e-29 0.0571856)
(9.95181 -2.94905e-26 0.131627)
(9.97213 -1.51747e-26 0.113843)
(9.89793 -3.06372e-26 0.184671)
(9.93028 -4.63714e-26 0.171063)
(9.82292 0 0.240296)
(9.86705 1.56598e-26 0.23102)
(9.72674 2.70275e-25 0.298249)
(9.78257 2.55989e-25 0.29415)
(9.60941 5.45841e-25 0.35757)
(9.67722 2.67084e-25 0.359434)
(9.4714 8.58118e-25 0.417529)
(9.55135 -7.97176e-25 0.425743)
(9.3135 6.47157e-24 0.477944)
(9.40555 5.00496e-24 0.492511)
(9.13656 3.75053e-23 0.539192)
(9.24063 1.23541e-24 0.559836)
(8.94121 -1.44214e-23 0.602111)
(9.05737 1.234e-23 0.628404)
(8.72779 1.83845e-23 0.667863)
(8.85633 3.37533e-23 0.699354)
(8.4962 1.71189e-22 0.737773)
(8.63762 -1.99889e-23 0.774102)
(8.24592 1.07348e-22 0.813186)
(8.40097 1.19383e-22 0.854168)
(7.97604 0 0.895349)
(8.14564 3.41254e-22 0.941033)
(7.68529 -1.01872e-22 0.98533)
(7.87051 8.91933e-26 1.03603)
(7.37209 1.6853e-21 1.08394)
(7.57414 -6.72683e-22 1.14027)
(7.03468 1.74285e-21 1.19169)
(7.25478 1.13666e-21 1.25456)
(6.67114 3.98588e-23 1.30867)
(6.91048 -2.94215e-21 1.37934)
(6.27951 3.89279e-23 1.43455)
(6.53914 3.6097e-21 1.51462)
(5.85792 0 1.56839)
(6.13861 3.77214e-21 1.65986)
(5.40467 8.86088e-21 1.70862)
(5.70675 -3.72132e-21 1.81383)
(4.91848 8.65673e-21 1.8529)
(5.24167 1.69742e-20 1.97455)
(4.39871 0 1.99806)
(4.74185 1.73031e-20 2.13908)
(3.84566 0 2.14006)
(4.20648 -3.66287e-20 2.30348)
(3.26098 5.80637e-22 2.27412)
(3.63583 0 2.46275)
(2.64804 -2.44383e-19 2.39494)
(3.03174 1.27027e-19 2.61093)
(2.01236 -2.94452e-20 2.49705)
(2.39799 -2.86038e-19 2.74148)
(1.36186 5.2111e-19 2.57631)
(1.74302 2.55314e-19 2.84762)
(0.706336 -1.61759e-19 2.60594)
(1.06136 2.60154e-19 2.92541)
(0.443308 -5.79705e-19 2.91861)
(9.98417 -1.17089e-26 0.0919496)
(9.99367 7.52265e-27 0.0649393)
(9.951 -3.24298e-26 0.153744)
(9.97175 3.76922e-27 0.130476)
(9.89834 6.64167e-28 0.217908)
(9.93047 -7.66383e-27 0.198117)
(9.82535 2.7452e-25 0.285425)
(9.86891 3.11972e-26 0.269422)
(9.73185 2.52929e-25 0.355871)
(9.78703 2.54665e-25 0.344531)
(9.61794 -1.08868e-24 0.428105)
(9.68503 0 0.422303)
(9.48407 3.41894e-24 0.501193)
(9.56324 -7.09625e-27 0.50141)
(9.33102 -2.76063e-25 0.574848)
(9.42227 3.42548e-26 0.581115)
(9.1596 -2.37959e-23 0.649476)
(9.26294 -4.59718e-24 0.661471)
(8.97046 6.07684e-23 0.726067)
(9.08602 -2.37298e-23 0.743257)
(8.76393 -5.2584e-24 0.806018)
(8.89206 4.9548e-23 0.827806)
(8.53991 -7.01223e-23 0.890941)
(8.68119 -1.56381e-22 0.916797)
(8.2979 3.55938e-22 0.982493)
(8.45313 4.67754e-25 1.01205)
(8.03696 3.37273e-22 1.08224)
(8.20717 -5.43245e-24 1.11538)
(7.75579 -5.7874e-22 1.19156)
(7.94218 -4.52788e-23 1.22843)
(7.45275 -1.19962e-21 1.31157)
(7.65667 4.15382e-22 1.35264)
(7.12593 -3.59664e-21 1.44301)
(7.34879 -1.99454e-21 1.48912)
(6.77316 7.04893e-22 1.58624)
(7.01642 7.56051e-22 1.63861)
(6.39214 7.34457e-21 1.74107)
(6.65715 1.00938e-21 1.80137)
(5.98049 -3.5881e-23 1.90669)
(6.2684 1.93291e-21 1.97707)
(5.53583 4.63639e-21 2.08147)
(5.84742 9.90407e-23 2.16464)
(5.05603 2.56248e-20 2.26285)
(5.39146 -2.30205e-20 2.36207)
(4.5394 -1.99487e-20 2.44714)
(4.89796 7.27354e-22 2.5662)
(3.9851 -3.62101e-20 2.62945)
(4.36482 -1.69786e-21 2.77252)
(3.39363 1.27938e-19 2.80359)
(3.79088 0 2.97497)
(2.76743 8.06941e-20 2.96234)
(3.1766 4.90779e-20 3.16592)
(2.11157 5.04396e-21 3.09783)
(2.52457 -2.77728e-21 3.33642)
(1.43434 -5.73254e-21 3.20354)
(1.84352 -4.08637e-20 3.47676)
(0.746742 -1.67681e-19 3.2458)
(1.12633 2.0127e-20 3.58041)
(0.470543 -1.93406e-19 3.57954)
(9.984 2.29518e-26 0.104196)
(9.99368 -3.6861e-27 0.0727734)
(9.95123 2.83961e-26 0.175464)
(9.972 3.98597e-27 0.146913)
(9.90002 2.33296e-26 0.250248)
(9.93168 2.2786e-26 0.224421)
(9.8294 1.40222e-26 0.329202)
(9.87211 3.09444e-26 0.306579)
(9.73905 -1.29818e-27 0.411663)
(9.79321 -5.04743e-25 0.393213)
(9.6291 1.08145e-24 0.496301)
(9.69504 -5.12256e-25 0.482986)
(9.50001 -3.39111e-24 0.582002)
(9.57792 1.06867e-24 0.574372)
(9.35256 -4.34199e-24 0.66838)
(9.44248 -4.3945e-24 0.666477)
(9.18755 -4.75977e-24 0.755867)
(9.28954 -1.1083e-23 0.759309)
(9.00562 -3.40714e-23 0.845591)
(9.11988 2.04064e-23 0.853731)
(8.80712 -1.04033e-22 0.939174)
(8.93405 8.61732e-24 0.951264)
(8.59197 -8.39187e-23 1.03851)
(8.73222 -7.8431e-23 1.05384)
(8.35968 -3.60938e-22 1.14557)
(8.51412 -1.02703e-23 1.16359)
(8.10933 -3.88426e-22 1.26226)
(8.27908 -3.46652e-22 1.28265)
(7.8396 9.54246e-22 1.39027)
(8.02598 6.4584e-22 1.413)
(7.54879 -4.08081e-22 1.53106)
(7.75331 1.07867e-21 1.55644)
(7.23483 2.39059e-21 1.68572)
(7.45916 -1.4603e-21 1.71444)
(6.89536 1.06332e-21 1.85492)
(7.14124 7.58265e-21 1.8881)
(6.52767 -4.39184e-21 2.03878)
(6.79686 -3.36467e-21 2.07808)
(6.12883 2.04608e-21 2.23673)
(6.42297 -1.83933e-21 2.28441)
(5.69569 -2.78245e-20 2.44732)
(6.01618 -2.9998e-21 2.50635)
(5.22506 -4.76467e-20 2.668)
(5.57277 -8.91491e-21 2.74215)
(4.71395 1.89557e-20 2.89481)
(5.08889 -2.42014e-20 2.98871)
(4.15994 3.45428e-20 3.12211)
(4.5608 3.49447e-20 3.24125)
(3.56179 -7.83197e-20 3.3424)
(3.98536 6.75436e-20 3.49288)
(2.92037 -3.49672e-20 3.54633)
(3.36088 -4.15262e-20 3.7343)
(2.23967 -4.92061e-20 3.72305)
(2.68783 4.11099e-20 3.9539)
(1.52808 -1.42039e-20 3.86272)
(1.97455 -7.75581e-21 4.13807)
(0.798324 -8.11191e-21 3.92408)
(1.21193 7.24549e-20 4.27627)
(0.506685 -7.87973e-20 4.28853)
(9.98421 -2.25637e-26 0.11628)
(9.99381 1.85707e-27 0.0805085)
(9.95221 -1.40033e-27 0.196612)
(9.97269 -1.8981e-27 0.16296)
(9.90275 3.04951e-26 0.281504)
(9.93369 -1.5204e-26 0.249831)
(9.83483 -4.94212e-25 0.371392)
(9.87644 -1.06715e-25 0.342313)
(9.74809 -1.01578e-24 0.465364)
(9.80088 -5.64359e-25 0.439956)
(9.64263 -5.06134e-25 0.561876)
(9.70701 6.05271e-26 0.541185)
(9.51897 0 0.659635)
(9.59513 0 0.644272)
(9.37785 -1.12154e-23 0.758158)
(9.46589 0 0.74817)
(9.22009 1.44596e-23 0.857895)
(9.32012 4.17765e-24 0.852844)
(9.04636 6.29544e-23 0.960107)
(9.1586 2.71609e-23 0.959234)
(8.85699 3.31711e-23 1.06663)
(8.98192 -3.63134e-23 1.06904)
(8.65198 -3.97638e-24 1.17965)
(8.79027 -3.11915e-24 1.18443)
(8.43086 0 1.30143)
(8.58346 0 1.30785)
(8.19276 6.99453e-22 1.43422)
(8.36086 -3.23647e-22 1.44174)
(7.93636 7.75417e-22 1.58008)
(8.12141 1.17058e-23 1.58845)
(7.65993 -3.73336e-24 1.74084)
(7.8636 9.13559e-23 1.75016)
(7.36132 3.83907e-21 1.91799)
(7.58552 -9.29036e-23 1.92874)
(7.03795 3.02551e-21 2.11262)
(7.28475 3.82455e-21 2.12577)
(6.68676 -7.94554e-22 2.32531)
(6.95838 -8.04008e-22 2.34237)
(6.30425 -6.90038e-21 2.55595)
(6.60296 0 2.57915)
(5.88644 1.58404e-20 2.80351)
(6.21441 6.66288e-21 2.83596)
(5.42894 1.43582e-20 3.06577)
(5.78803 1.53485e-20 3.11161)
(4.92713 -7.53493e-21 3.33885)
(5.31848 1.39747e-20 3.4035)
(4.37651 6.83202e-20 3.61678)
(4.8 -1.48165e-20 3.70706)
(3.77337 1.03137e-19 3.89096)
(4.2268 3.58947e-20 4.01506)
(3.11592 3.55133e-20 4.14983)
(3.59398 2.73904e-21 4.31686)
(2.40599 8.20363e-20 4.37889)
(2.89845 3.55899e-20 4.59797)
(1.65135 7.99882e-20 4.56336)
(2.14661 4.44891e-20 4.83967)
(0.86731 0 4.65233)
(1.32639 -7.86964e-20 5.02443)
(0.555824 -1.94433e-19 5.05621)
(9.98465 2.24756e-26 0.12804)
(9.99402 -8.24425e-28 0.0880238)
(9.95376 -1.586e-26 0.217026)
(9.97369 3.06618e-26 0.178453)
(9.90634 -1.53508e-25 0.311512)
(9.93633 -3.0289e-26 0.274194)
(9.84146 -1.82342e-25 0.411795)
(9.88172 9.0089e-26 0.376447)
(9.75874 5.19381e-25 0.51672)
(9.80986 2.78915e-25 0.484528)
(9.6583 5.65914e-25 0.624517)
(9.72073 5.10346e-25 0.596617)
(9.54066 0 0.733712)
(9.61463 -2.03794e-24 0.710769)
(9.40657 1.54424e-23 0.843724)
(9.49221 3.11266e-24 0.825791)
(9.25688 1.71547e-23 0.955019)
(9.35432 7.70528e-24 0.941601)
(9.09225 -7.28607e-23 1.06898)
(9.20178 -3.31654e-23 1.05921)
(8.91309 -7.2212e-23 1.18765)
(9.03519 -3.75848e-23 1.18046)
(8.71942 8.86696e-25 1.31347)
(8.85482 -1.69193e-23 1.30779)
(8.51087 -3.2751e-22 1.44904)
(8.66054 1.52074e-22 1.4439)
(8.28662 -1.0073e-21 1.59692)
(8.45183 1.48719e-23 1.59157)
(8.04543 -6.71312e-22 1.75957)
(8.22772 -7.20576e-22 1.7535)
(7.78558 0 1.93922)
(7.98678 4.16845e-23 1.93226)
(7.50489 -6.04529e-23 2.13783)
(7.72713 2.7462e-21 2.13019)
(7.20064 -5.9039e-23 2.35701)
(7.44633 -2.95335e-21 2.34937)
(6.8695 0 2.59794)
(7.14136 0 2.59157)
(6.50746 1.36392e-20 2.8612)
(6.80844 7.53105e-21 2.85812)
(6.1097 6.27005e-21 3.14651)
(6.44293 8.76717e-21 3.14974)
(5.67056 1.49492e-20 3.45241)
(6.03916 2.74185e-21 3.46622)
(5.18357 6.36872e-21 3.77567)
(5.59027 1.49859e-20 3.80602)
(4.6416 -4.66784e-20 4.11059)
(5.08818 -2.86674e-20 4.16552)
(4.03751 -6.49076e-20 4.44807)
(4.52375 3.89551e-20 4.53801)
(3.36538 3.17621e-21 4.77465)
(3.88754 -6.26416e-20 4.91238)
(2.62285 -1.84212e-21 5.07155)
(3.17067 4.95989e-21 5.27155)
(1.81506 -1.15915e-19 5.3167)
(2.37457 2.85352e-20 5.59064)
(0.959096 -2.74652e-19 5.44484)
(1.48089 -7.86813e-20 5.8411)
(0.623182 -1.74753e-19 5.90219)
(9.98528 7.73887e-27 0.139353)
(9.9943 -9.23256e-28 0.0952326)
(9.95576 1.55045e-26 0.236563)
(9.97495 -1.3701e-26 0.193258)
(9.91065 2.14741e-25 0.340112)
(9.93947 -7.44121e-27 0.297368)
(9.84913 5.53584e-25 0.450212)
(9.88781 9.91289e-26 0.408813)
(9.77083 2.72635e-25 0.565483)
(9.81999 9.72453e-26 0.526721)
(9.67588 -2.12396e-24 0.68392)
(9.73601 -6.24118e-26 0.64902)
(9.56481 1.13627e-24 0.803869)
(9.63616 -1.17258e-26 0.77355)
(9.4384 -4.56887e-24 0.924649)
(9.52113 -1.02543e-24 0.898967)
(9.29751 -4.31009e-23 1.04673)
(9.39178 8.22385e-25 1.02514)
(9.14284 2.05552e-24 1.17162)
(9.24896 -7.06227e-25 1.15313)
(8.97485 1.79428e-23 1.30153)
(9.09333 1.01681e-23 1.28494)
(8.79367 1.36278e-22 1.43917)
(8.92523 1.00194e-22 1.42321)
(8.59899 4.92772e-22 1.58743)
(8.74465 2.01109e-23 1.5709)
(8.39013 2.92776e-22 1.74921)
(8.55118 3.38474e-22 1.73112)
(8.16595 1.49921e-24 1.92735)
(8.34401 6.63051e-22 1.9069)
(7.92485 2.82004e-21 2.1245)
(8.12185 1.24375e-21 2.10123)
(7.66469 -2.13666e-22 2.34315)
(7.88295 5.38975e-23 2.3169)
(7.38272 -2.85886e-21 2.58552)
(7.62499 -3.6768e-22 2.5566)
(7.07549 7.61947e-21 2.85355)
(7.34494 1.73812e-22 2.82279)
(6.73859 2.67385e-21 3.14873)
(7.03891 1.88195e-21 3.11771)
(6.36652 5.16822e-21 3.47189)
(6.70189 -4.8973e-21 3.44324)
(5.95244 2.91917e-21 3.82285)
(6.32746 2.00028e-20 3.8006)
(5.48787 -2.05448e-20 4.1998)
(5.90737 1.89889e-20 4.18998)
(4.96269 5.77334e-20 4.59832)
(5.43119 -3.83962e-20 4.60973)
(4.36527 4.00637e-20 5.01001)
(4.8859 6.93005e-20 5.05511)
(3.68356 -6.00206e-20 5.42053)
(4.25613 -5.5044e-20 5.51624)
(2.90773 3.56926e-20 5.80693)
(3.52423 -3.05847e-20 5.9751)
(2.03578 6.42884e-20 6.13753)
(2.68146 1.22464e-19 6.40079)
(1.08228 1.99393e-20 6.32536)
(1.69535 4.35034e-22 6.75011)
(0.719039 1.99612e-20 6.86501)
(9.98604 -2.25148e-26 0.15012)
(9.99463 7.31647e-27 0.102069)
(9.95811 -3.65715e-26 0.255093)
(9.97639 -2.47417e-28 0.207266)
(9.91557 -1.21776e-25 0.367156)
(9.94303 -7.44121e-27 0.319223)
(9.8577 -3.57228e-25 0.486461)
(9.89457 -8.3253e-26 0.439259)
(9.78417 -2.3971e-25 0.611425)
(9.83109 -3.08671e-26 0.566341)
(9.69513 2.0503e-24 0.739811)
(9.75262 -1.0952e-24 0.698159)
(9.59114 -2.18537e-24 0.869778)
(9.65947 2.1497e-24 0.832331)
(9.47299 4.38821e-24 1.00055)
(9.55233 -5.15609e-24 0.967362)
(9.34156 4.31972e-23 1.13259)
(9.4321 1.08965e-24 1.10306)
(9.19762 7.53467e-24 1.26748)
(9.29968 1.75007e-23 1.24054)
(9.0417 9.34863e-23 1.40765)
(9.15577 8.58309e-24 1.38192)
(8.874 -1.69178e-23 1.55599)
(9.00083 4.6623e-23 1.53002)
(8.6944 -1.30367e-22 1.7157)
(8.83497 -1.68501e-22 1.68807)
(8.50235 7.1262e-22 1.88998)
(8.65797 3.69171e-23 1.85944)
(8.29689 1.91223e-21 2.08205)
(8.46919 8.45151e-22 2.0475)
(8.07659 -1.53592e-21 2.29501)
(8.26759 -2.13793e-22 2.25561)
(7.83952 -1.04532e-22 2.53185)
(8.05166 -5.53132e-21 2.48705)
(7.58304 2.67134e-21 2.79551)
(7.8193 2.77678e-21 2.74509)
(7.30374 -5.54183e-21 3.08876)
(7.56771 1.73811e-22 3.03298)
(6.9971 -5.7661e-21 3.41423)
(7.29313 -1.62866e-20 3.35398)
(6.65723 1.02243e-20 3.77424)
(6.99053 1.0609e-20 3.71134)
(6.27635 3.60616e-20 4.17046)
(6.65317 -1.20304e-20 4.10815)
(5.84425 4.84945e-22 4.60343)
(6.27189 2.46695e-21 4.54707)
(5.34768 -2.56106e-20 5.07147)
(5.8343 -1.09978e-21 5.02969)
(4.76975 -2.72277e-20 5.56892)
(5.32358 -2.50749e-20 5.55523)
(4.09005 -2.53249e-20 6.08307)
(4.71752 -1.54684e-21 6.11811)
(3.28649 5.80194e-20 6.58897)
(3.98642 0 6.70339)
(2.34179 5.68116e-20 7.0446)
(3.1038 3.44624e-20 7.27786)
(1.25803 1.42717e-21 7.33141)
(2.00714 -1.14041e-20 7.78238)
(0.865726 -2.74989e-20 8.00187)
(9.9869 2.94929e-26 0.160263)
(9.99499 -7.14768e-27 0.108484)
(9.96074 2.87964e-26 0.272507)
(9.97799 2.57984e-28 0.220388)
(9.92098 3.01746e-26 0.392509)
(9.94693 0 0.339646)
(9.86703 2.43723e-25 0.52038)
(9.9019 -8.72275e-26 0.467648)
(9.79858 -8.99085e-25 0.654347)
(9.84303 1.52055e-25 0.603222)
(9.71583 -9.57013e-25 0.791946)
(9.77039 -1.87857e-25 0.743828)
(9.61936 -9.08316e-25 0.93115)
(9.6843 2.45392e-25 0.886864)
(9.50997 -8.37933e-24 1.07107)
(9.58549 -4.97552e-24 1.03068)
(9.3886 -2.44084e-23 1.21217)
(9.47489 -7.28612e-24 1.17503)
(9.25605 1.84403e-23 1.3561)
(9.35342 -1.28447e-23 1.32103)
(9.11295 -3.78203e-23 1.50543)
(9.22189 5.56597e-23 1.47091)
(8.95965 -1.07521e-22 1.66326)
(9.08086 5.64995e-24 1.62767)
(8.79617 1.23258e-24 1.83302)
(8.93061 -3.65583e-23 1.79473)
(8.62218 1.79208e-22 2.01823)
(8.77112 3.69171e-23 1.97569)
(8.43696 -1.29305e-21 2.22243)
(8.602 -3.05445e-22 2.17424)
(8.23938 -4.27214e-21 2.44913)
(8.42253 -1.56456e-21 2.39407)
(8.02779 -2.55083e-21 2.70187)
(8.23153 -3.38774e-21 2.63891)
(7.79989 2.49251e-22 2.98425)
(8.02733 -4.09391e-21 2.91258)
(7.55256 -1.07641e-20 3.29999)
(7.80755 -3.68565e-21 3.21911)
(7.28152 4.01802e-22 3.65298)
(7.56892 1.02308e-21 3.56282)
(6.98094 -1.19008e-20 4.04726)
(7.30686 -4.82993e-21 3.94844)
(6.64274 -4.54396e-20 4.48697)
(7.01495 -1.43289e-20 4.38123)
(6.25564 8.40764e-22 4.97597)
(6.68402 -1.27986e-20 4.86695)
(5.80389 -8.39173e-22 5.51713)
(6.30087 1.82773e-20 5.41167)
(5.26544 8.85116e-22 6.11056)
(5.84616 -4.14542e-21 6.02105)
(4.60991 2.38007e-20 6.75001)
(5.2915 1.41067e-20 6.69829)
(3.79736 -2.3131e-20 7.41501)
(4.59345 1.88058e-20 7.43933)
(2.7817 -3.4545e-20 8.05847)
(3.69902 2.59026e-20 8.22003)
(1.52829 -3.98384e-20 8.52055)
(2.48676 -2.00421e-20 8.97533)
(1.11278 -2.66247e-20 9.41155)
(9.98784 -3.62935e-26 0.16972)
(9.99538 -4.48341e-28 0.114437)
(9.9636 -2.85409e-26 0.288713)
(9.9797 -1.40689e-26 0.23255)
(9.92682 -1.18444e-25 0.416055)
(9.9511 7.22106e-27 0.35854)
(9.87699 -1.76034e-25 0.551826)
(9.90969 -1.08655e-25 0.493862)
(9.8139 8.5916e-25 0.694072)
(9.85566 -3.07947e-25 0.637218)
(9.73776 1.01966e-24 0.840111)
(9.7891 1.02653e-24 0.78585)
(9.64917 -3.8842e-24 0.98773)
(9.71039 1.85402e-27 0.93694)
(9.54898 -3.90994e-24 1.13593)
(9.62027 3.86482e-24 1.08868)
(9.43814 4.21115e-24 1.28513)
(9.51969 -7.90098e-24 1.24075)
(9.31754 2.51934e-23 1.43706)
(9.40965 2.02367e-23 1.39426)
(9.18791 9.85319e-23 1.59438)
(9.29103 -4.51422e-23 1.55154)
(9.04974 7.61085e-23 1.76039)
(9.16452 -5.74132e-23 1.71568)
(8.90326 0 1.93869)
(9.03059 -1.35646e-22 1.89029)
(8.74838 -4.51697e-22 2.13307)
(8.88945 0 2.07917)
(8.58472 -5.91773e-22 2.34735)
(8.74102 1.14273e-22 2.28624)
(8.41149 -7.02549e-22 2.58541)
(8.58496 -1.48978e-22 2.51547)
(8.22749 -4.93932e-21 2.85127)
(8.42055 1.82073e-21 2.77096)
(8.03096 -8.02311e-21 3.14916)
(8.24667 3.79356e-22 3.05702)
(7.81938 8.15215e-21 3.48369)
(8.06165 1.16354e-21 3.37834)
(7.58914 -4.27378e-21 3.86002)
(7.86304 9.26224e-21 3.74022)
(7.33512 -7.37154e-21 4.28405)
(7.64728 -2.2575e-20 4.14882)
(7.04985 1.83158e-20 4.76268)
(7.40913 1.24979e-20 4.61155)
(6.72235 4.9953e-21 5.30393)
(7.14077 6.15237e-21 5.13754)
(6.33611 1.47164e-20 5.91696)
(6.83024 -1.44309e-20 5.73818)
(5.86589 9.28372e-21 6.61138)
(6.45873 9.05028e-22 6.42767)
(5.27246 9.18046e-21 7.39486)
(5.99585 2.2712e-20 7.2232)
(4.49465 6.80623e-20 8.26539)
(5.38855 -1.49907e-20 8.14325)
(3.43967 4.00774e-20 9.19301)
(4.55511 4.7891e-20 9.19778)
(1.98303 -6.9111e-21 9.98731)
(3.27449 -2.90209e-20 10.3607)
(1.57981 1.46741e-22 11.2823)
(9.98885 2.16129e-26 0.17844)
(9.99579 6.91952e-27 0.119897)
(9.96663 2.19469e-26 0.303636)
(9.98151 1.54823e-26 0.243696)
(9.93297 1.5621e-26 0.4377)
(9.95547 6.33114e-27 0.375827)
(9.88747 -2.42954e-25 0.580682)
(9.91784 2.38162e-25 0.517805)
(9.82995 -1.24628e-25 0.730462)
(9.86883 -1.53145e-26 0.668212)
(9.76067 -3.51817e-27 0.884144)
(9.80857 -8.12242e-25 0.824083)
(9.68026 7.79674e-24 1.03933)
(9.73748 -3.5782e-25 0.982389)
(9.58961 -2.67107e-25 1.19489)
(9.65632 4.19409e-24 1.14116)
(9.48969 8.46076e-24 1.35123)
(9.56609 -5.83427e-24 1.29999)
(9.38148 -5.08762e-23 1.51006)
(9.46783 -5.84037e-24 1.45997)
(9.26582 -2.01222e-22 1.67417)
(9.36251 -2.94918e-23 1.62347)
(9.14336 -2.70093e-22 1.84694)
(9.25097 -6.83778e-23 1.79369)
(9.01455 -1.34026e-22 2.03218)
(9.13387 -6.81113e-23 1.97432)
(8.8796 5.67333e-22 2.23382)
(9.01169 3.34154e-22 2.16933)
(8.73849 5.53963e-22 2.45594)
(8.88469 6.72791e-24 2.3828)
(8.59089 2.397e-21 2.70269)
(8.75296 0 2.61891)
(8.43619 7.12046e-21 2.97845)
(8.61635 2.36882e-21 2.88199)
(8.27332 9.57206e-21 3.28799)
(8.47442 3.56291e-21 3.17672)
(8.10068 2.36726e-21 3.63663)
(8.32641 -6.98888e-22 3.50827)
(7.91581 -9.41051e-21 4.03064)
(8.17104 -2.30847e-21 3.88266)
(7.71503 -2.30225e-21 4.47762)
(8.00633 -1.09859e-20 4.30718)
(7.49273 2.51333e-22 4.98711)
(7.82917 -4.49901e-21 4.79102)
(7.24013 -1.34848e-20 5.57144)
(7.63463 4.68759e-20 5.34621)
(6.94318 -2.8015e-20 6.24699)
(7.41481 -1.01614e-20 5.98911)
(6.57844 1.46305e-20 7.03579)
(7.15643 -4.83012e-20 6.74287)
(6.1051 -1.78448e-21 7.96774)
(6.83649 3.20633e-20 7.64147)
(5.44807 -3.42924e-20 9.08157)
(6.4095 -2.25739e-20 8.73711)
(4.46069 -2.31599e-20 10.4232)
(5.79449 1.92586e-20 10.1117)
(2.83953 -2.16557e-20 11.8999)
(4.67519 -1.91822e-20 11.9009)
(2.58984 -1.28073e-20 14.0081)
(9.9899 8.91356e-28 0.186385)
(9.99621 2.24612e-28 0.124843)
(9.96979 -2.42744e-28 0.317212)
(9.98338 1.50857e-27 0.253781)
(9.93939 2.31638e-25 0.457355)
(9.96001 -1.73963e-27 0.391447)
(9.89834 4.62753e-25 0.606831)
(9.92628 2.32959e-25 0.539401)
(9.84656 -7.12465e-25 0.763362)
(9.88242 2.10168e-25 0.696112)
(9.78435 -1.16111e-24 0.923847)
(9.82864 -9.11376e-25 0.858418)
(9.71235 -3.90576e-24 1.0857)
(9.76538 -4.64092e-25 1.02308)
(9.63148 -1.49336e-24 1.24768)
(9.69344 -7.02587e-24 1.18798)
(9.54277 -2.01342e-23 1.41011)
(9.61383 3.94015e-25 1.35259)
(9.44726 1.52584e-23 1.57472)
(9.52766 -2.04942e-23 1.51797)
(9.34591 1.02874e-22 1.74433)
(9.43599 3.71603e-23 1.68651)
(9.23954 1.33574e-22 1.92242)
(9.33981 7.39173e-24 1.86144)
(9.12886 4.04833e-22 2.11289)
(9.23998 6.87796e-23 2.04653)
(9.01438 -2.30226e-22 2.3198)
(9.13726 3.34485e-22 2.24583)
(8.89647 -5.47185e-22 2.54735)
(9.03229 -5.6419e-22 2.46348)
(8.77536 0 2.79988)
(8.92562 5.06229e-22 2.70378)
(8.65108 -1.17359e-21 3.08201)
(8.81771 -5.07201e-22 2.97119)
(8.52345 -6.75651e-21 3.3988)
(8.70893 8.51025e-22 3.27052)
(8.39201 -5.39339e-21 3.75606)
(8.59958 -5.56089e-21 3.60719)
(8.25588 -3.98976e-21 4.16079)
(8.48982 6.21624e-21 3.98755)
(8.11352 -1.31041e-20 4.62173)
(8.37967 4.14748e-21 4.41946)
(7.96239 4.26854e-20 5.15034)
(8.26888 -3.19901e-20 4.91301)
(7.79816 4.95887e-20 5.7623)
(8.15688 2.98426e-20 5.48181)
(7.6134 -3.08793e-20 6.47996)
(8.0425 -1.55213e-20 6.14508)
(7.39473 -2.99484e-20 7.33701)
(7.92369 7.57011e-21 6.93151)
(7.11626 1.07903e-20 8.38758)
(7.7976 -1.3689e-20 7.88685)
(6.72254 3.11442e-20 9.72742)
(7.6594 9.17399e-22 9.09162)
(6.07342 2.12594e-20 11.5703)
(7.53616 1.19868e-20 10.7101)
(4.69363 -1.01576e-20 14.6033)
(7.53347 -3.3186e-20 13.2075)
(6.78717 1.06805e-20 18.5865)
(-0.493243 -3.71964e-20 0.242406)
(-0.263043 -8.57099e-19 0.483639)
(-1.00505 2.19317e-19 0.236765)
(-0.775206 4.05071e-19 0.486564)
(-1.50571 -1.57323e-19 0.218344)
(-1.3005 1.12968e-19 0.465756)
(-1.97003 -2.99449e-20 0.187866)
(-1.80396 -3.97079e-19 0.422745)
(-2.36894 6.59266e-21 0.146337)
(-2.25496 2.76988e-20 0.35518)
(-2.67261 1.90161e-20 0.0931197)
(-2.6162 3.32091e-20 0.264214)
(-2.8497 1.25456e-20 0.0306316)
(-2.85885 3.10468e-20 0.150486)
(-2.87802 -1.31397e-21 -0.0372584)
(-2.96076 -5.72724e-21 0.0234923)
(-2.74011 -1.34615e-21 -0.106918)
(-2.89631 2.56808e-21 -0.111714)
(-2.4342 1.03588e-21 -0.172669)
(-2.66229 0 -0.241871)
(-1.96967 4.51754e-22 -0.228347)
(-2.25673 9.23418e-22 -0.35851)
(-1.37409 -1.12095e-21 -0.268856)
(-1.70558 -3.68816e-22 -0.4487)
(-0.680932 -5.1466e-22 -0.293243)
(-1.04194 -5.95614e-22 -0.509796)
(0.075902 4.17901e-24 -0.302327)
(-0.286126 -1.53346e-22 -0.543411)
(0.861592 7.39339e-24 -0.298496)
(0.493365 1.40864e-22 -0.550759)
(1.64759 3.18844e-24 -0.285412)
(1.29514 1.21295e-23 -0.537929)
(2.41239 -8.41384e-25 -0.266185)
(2.08604 -1.57086e-23 -0.511045)
(3.14031 -8.6175e-25 -0.243275)
(2.8465 1.47204e-23 -0.474905)
(3.82068 2.20635e-25 -0.21863)
(3.56336 0 -0.433393)
(4.44708 2.25973e-25 -0.193729)
(4.22817 4.42837e-25 -0.389584)
(5.0165 0 -0.169626)
(4.83637 0 -0.345786)
(5.52858 -3.34161e-26 -0.147012)
(5.38648 0 -0.303618)
(5.98482 -2.9659e-27 -0.126286)
(5.87924 -3.38203e-26 -0.264121)
(6.38798 3.17638e-26 -0.107624)
(6.31693 2.59477e-26 -0.22788)
(6.74155 2.26067e-28 -0.0910413)
(6.70278 1.13687e-27 -0.195134)
(7.04938 1.60447e-27 -0.0764439)
(7.04053 2.12238e-28 -0.165874)
(7.31535 -5.25712e-29 -0.0636802)
(7.33407 -6.62346e-28 -0.139931)
(7.54322 1.83942e-31 -0.052595)
(7.58722 0 -0.117057)
(7.73677 1.88392e-31 -0.0434705)
(7.80342 1.10768e-31 -0.0970795)
(8.0235 0 -0.0812265)
(-0.51247 -4.30452e-19 0.737347)
(-0.281566 3.80201e-20 1.00327)
(-1.05703 3.0202e-19 0.724863)
(-0.827512 -4.84052e-19 1.00608)
(-1.58906 -1.20762e-19 0.678089)
(-1.39695 2.39776e-19 0.96181)
(-2.08106 -3.44477e-19 0.596438)
(-1.94127 -5.55524e-19 0.8712)
(-2.50408 5.42949e-20 0.478847)
(-2.4278 1.84009e-19 0.731977)
(-2.82587 4.536e-20 0.324823)
(-2.82078 1.14052e-19 0.544183)
(-3.00987 1.32174e-20 0.142537)
(-3.08354 1.86503e-20 0.306779)
(-3.03384 -1.94449e-21 -0.056025)
(-3.19084 -1.76922e-22 0.0433113)
(-2.88042 3.94664e-21 -0.25771)
(-3.11606 1.40179e-21 -0.236029)